250
Lattice="15.927500000000002 0.0 0.0 0.0 15.927500000000002 0.0 0.0 0.0 15.927500000000002" Properties=species:S:1:pos:R:3:momenta:R:3:forces:R:3 Temperature=1048.16712981678 energy=35.904073096239365 stress="-0.01893381139568618 0.0016281754066805635 0.0008347013569998767 0.0016281754066805635 -0.01916567560769419 0.0002849948038504852 0.0008347013569998767 0.0002849948038504852 -0.019290827638237286" free_energy=35.904073096239365 pbc="T T T"
W       -0.03256530       0.21281560       0.01215399      -0.14812220       4.52810804      -5.93857280      -0.08557436      -2.67824305       0.46693413
W        1.60225368       1.55290360       1.56501477      -1.77634524       7.53864961      -2.05074330       0.93785506       1.79145436       0.60140867
W       -0.09717029       0.19656397       3.28419610       4.48598389      -5.62237565       3.72483421       1.21751322      -1.84866293      -0.96490839
W        1.48644846       1.61345627       4.89502354      -1.89093392       5.98905328       0.37663310       1.38062413       0.71349623      -2.14557311
W       -0.10793398       0.09072257       6.40862847      -2.78184042      -1.44228765      -1.19355402       2.05805869      -0.64468670      -0.61296301
W        1.58221973       1.73966596       8.04888132      -1.92500589       8.34008885      -4.01462214      -0.06875120      -1.30339250      -1.93149452
W        0.16534368       0.06680712       9.50004780       2.76975850      -0.48836992       3.79310879      -3.43848230       0.15726972       0.43787394
W        1.54297960       1.63222917      11.05229443       1.35902782      -2.54492754      -1.82874408       0.44448705       1.21857613       1.13254370
W       -0.01730583       0.06462654      12.82616390       2.87713324       8.62899117       2.72370776      -0.71460027       0.96372408      -2.03915230
W        1.47577821       1.62966533      14.25415611       2.45587631      -2.74879609       5.22617995       1.76271444       1.32246338       0.55799828
W        0.02118980       3.11968762       0.10836523       0.64727857       0.13479549       4.46849830      -1.14928709       2.71594404      -1.72683496
W        1.59468714       4.83778945       1.56257510      -2.05946077      -0.04327785       0.08400081       1.01752827       0.45293741      -0.00430275
W        0.14564295       3.33344310       3.06364298      -5.41813031      -2.63014121      -8.12435725      -2.07310361       0.14872833       1.63468768
W        1.57927010       5.08390755       4.68684674      -7.15024724      -1.69244888       2.25495357      -0.70236039      -1.78334278       0.85026078
W        0.12184515       3.38957053       6.25053368      -4.22685528       2.08877787       2.62660417      -2.26840650      -0.14606115       0.08801711
W        1.64881706       4.96540399       7.86409935      -3.14985194      -5.77196622      -4.59590729      -1.18642926      -0.25708665       0.73747004
W        0.11236406       3.28934836       9.36100897      -1.63894997       0.93998043       1.77340856      -1.91970271       0.52472733       1.94276653
W        1.69881507       4.98543008      10.94521443      -3.98856390      -1.75020239       1.17923482      -2.84888140      -1.16320501       2.34347678
W        0.01021437       3.34070957      12.66967795      -0.26090455      -8.22684185       1.50225661      -0.53949076      -0.44650037      -0.16263610
W        1.34370587       4.87432082      14.45212091      -6.15339575      -1.00167705      -4.98378716       3.00884853      -0.40666501      -1.63434221
W       -0.14082159       6.42448330      -0.00605249       7.23970756      -2.57010518      -2.94640904       0.97827344       0.04625513       0.66117764
W        1.47209580       7.98854736       1.45413796       2.00492062       5.70494424      -2.94543430       1.38192635       1.04160260       2.27039702
W       -0.04860218       6.56773633       3.14590320       1.19884066       4.63914556      -3.78931032       0.31906675      -0.66217925       0.03701405
W        1.61994308       8.26874904       4.86130097      -4.69698088       5.99134944       0.37464538      -0.02070209      -2.99925836      -0.88719708
W       -0.10324860       6.54344145       6.36115350      -0.97268938       2.51315455      -1.99386228       2.11689748      -0.20700678       0.66461875
W        1.62566668       8.22038504       7.96959450       0.19934541       0.34966642      -0.78605171      -1.43052647      -2.19732525      -0.08923297
W        0.00481210       6.43356934       9.55168343      -5.83199660      -0.25472791       1.68305922      -0.62030738       1.56106130      -0.55637126
W        1.52599018       8.16011162      11.08373928      -0.97868896      -2.70535947      -7.01467318      -0.21277770      -1.34195030       1.46562706
W       -0.10194375       6.42807851      12.83717129      -2.80891702       4.47091456      11.47401849       0.79760790       0.37214085      -1.85743941
W        1.58838275       8.06370431      14.43218573      -7.86739362      -1.15774561       1.02171891       0.24823288      -0.10635822      -2.06854960
W        0.06934080       9.60646057      -0.02519311       4.14714160      -4.82640255      -4.33371502      -2.07672695       1.56255360       0.86631856
W        1.36886460      11.28617639       1.55578647       2.06685225       0.43458981      -4.63350075       2.13317002      -0.73577724      -0.23628432
W        0.01952274       9.75686667       3.27878350      -1.49630421       4.60434860       3.49368257      -0.68254514      -0.98608365      -1.98237963
W        1.61669752      11.18547652       4.74539170       6.09486548      -3.93152001      -3.33000041      -0.58405388       1.79105645       0.87627484
W        0.06150337       9.75280735       6.40616647       5.15595841      -0.15737852      -6.80363562      -0.68889467      -0.34720743       0.77450220
W        1.64164843      11.24491278       8.11657730       1.14804614      -3.39967565      -4.69602373      -1.25905138       0.08135468      -2.78454042
W       -0.01898817       9.73741442       9.66698602      -1.18587677      10.05624387       1.18331528      -1.30940933      -0.67839385      -1.45987345
W        1.43773142      11.25749084      11.08582994      -2.00943893      -0.64550400      -5.33511464       1.57620605       0.23231276       2.79505151
W       -0.05739297       9.61835513      12.85097533       2.16658658      -3.42182999      -2.08969065       0.65321668       1.29803002      -2.16114385
W        1.57890777      11.24866316      14.32491292      -2.06558170       2.27800560      -2.81665126       0.12679063       0.24791650       0.45407994
W       -0.12538742      12.85101649      -0.07197261       0.12259115       1.39960421       7.76999255       0.96511939       0.39411534       1.54207551
W        1.52182365      14.42299566       1.70383422       3.08365120       3.63539190       2.89478829      -0.07154305       0.27100927      -1.85017432
W       -0.13438507      12.81591615       3.18804446      -8.30069851       2.40681264      -4.65815808       1.76478205       1.15665391       0.76969648
W        1.62596274      14.32938628       4.74260469       3.43920793       4.55573126       0.83886320      -0.86056943       0.88516226       1.05371838
W       -0.01462007      12.80328080       6.49678852       4.93505723      -2.61179866      -4.50241428       0.59134910       0.10629375      -1.52043514
W        1.64227269      14.32693156       7.94685899       3.76316194      -1.88604222      10.72648964      -0.19987180       1.59368597       0.17085195
W        0.04072896      12.95735096       9.68112358       1.63989188       0.73908960       1.48758833      -2.22279404      -1.16095774      -1.14232649
W        1.50640268      14.47992901      11.15734499      -6.40419924      -0.48173376      -4.48651003       1.77350009      -1.14239137       0.66328728
W       -0.04627499      12.94054775      12.85800606      -1.85476421       0.50233216      -2.72199568       0.61301815      -1.32787539      -1.23597164
W        1.62527789      14.49686123      14.34127930      -2.61682378       5.98008154      -5.47406989      -0.25773602      -1.02356814       1.18242983
W        3.23568077       0.14815120       0.01801024      10.75756852       4.42847531      -0.66576917      -0.35425290      -1.35266595      -0.74408348
W        4.98175632       1.60794856       1.48578627      -0.64488169       0.69826820       6.81734118      -2.39588830       2.01316447       0.68871176
W        3.20558611       0.02441921       3.17509990      -1.07987374       4.42964934      -5.12209066      -0.71941747       1.00404687       0.86635661
W        4.67147631       1.78285720       4.84549447       0.34089240       3.03848600       3.89915722       0.67994259      -2.11038566      -1.33185311
W        3.09866524       0.16002915       6.46571673       2.71237217       4.22765120      -4.82750662       1.01875895      -1.44642192      -1.22248798
W        4.67463356       1.79193184       8.01747313      -4.10048117      -2.50526486      -1.27765278       1.70887888      -2.14330598      -0.17573684
W        3.20291962       0.05684530       9.55709387      -6.72600547       6.69640312       0.13563998       1.11411104      -0.49704669       0.09169601
W        4.70732005       1.74633838      11.09558458       0.96234004       7.03958419      -1.91684691       0.44335091      -0.46101831       0.89651866
W        3.05495496       0.08410591      12.67838606      -3.78657898       1.55374598       3.30812454       2.17118060      -0.00991656       0.25002188
W        4.66252772       1.72528793      14.19850806      -0.34746278       6.71239575       3.76052784       0.98139629      -0.12762782       0.80087242
W        3.22744308       3.15437460      -0.09778346       0.77165408      -7.34303254      -4.85293434      -0.29899368       1.91230672       0.59418591
W        4.78259715       4.94994317       1.64692320      -0.09015361      -0.55409402      -1.66856226      -0.80220402      -1.10502676      -1.54149905
W        3.22587481       3.21024825       3.15674408       0.99721451       8.09230656       4.92602382      -0.80998965       0.53805277      -0.24183940
W        4.60239342       4.82653859       4.81883430      -4.42257172       1.63140033      -0.01386183       2.17548716       0.61023303      -1.00369663
W        2.96795542       3.27687144       6.37041423      -1.72696219      -1.21691924       4.91606665       3.07165192       0.30870935      -0.33858379
W        4.86010616       4.74745438       7.79272155      -0.85095087       5.40749925       2.88099542      -0.29219410       1.55788858       1.91685845
W        3.17843392       3.28959054       9.55403410      -0.05630335       3.11184728      -2.68600790       0.66197098       0.51666010      -0.72861882
W        4.70942925       5.11142548      10.98368113      -2.61853431       0.55337909      -2.44844043       1.22402186      -2.81381835       1.35021758
W        3.00100204       3.37878092      12.63699628      -7.59214343       1.32480303      -2.81114693       1.87923993      -0.46348810       0.70598586
W        4.77127421       4.98222755      14.17823420       5.71114796       4.07799808       3.85753080      -1.63993466      -0.88851734       1.38883495
W        3.23162152       6.52532596      -0.10452961      -5.05272365      -0.14660387       1.57600469      -0.56405162      -1.24561171       1.26346931
W        4.77016722       8.05106224       1.55229191       2.10080368       7.14307223       1.64412633       0.02222803      -0.24910136       0.42513304
W        3.10250502       6.51893155       3.32887831       3.07113825      -2.11980106       2.67360969       1.14645357       0.69771435      -2.21165120
W        4.81760702       8.17699838       4.97289515      -5.03951086       0.58501974       0.69342097      -0.34767797      -2.08839099      -2.43221885
W        3.26922914       6.47066854       6.49147971      -3.68399861       5.17411605       4.68064427      -1.24698176       0.78080934      -1.85532154
W        4.77599249       8.06880827       8.11404872       3.97440400       8.34872000      -8.91616513       0.37271797      -0.19253954      -1.99388818
W        3.18260340       6.48789905       9.51440008      -8.33278238       0.48811770       3.89658286       0.14832887       1.05829431      -0.39158073
W        4.71958486       8.01756824      11.29952233      -0.19425580       2.45319275      -1.54961128       0.62419555       0.66452380      -1.40174052
W        2.99936145       6.52937869      12.69310367       5.14480001       1.73242924      -0.54306561       1.55961328      -0.27634152       0.58666536
W        4.85430362       8.26842954      14.27050068      -3.10064263       5.32126978       3.64202794      -1.20190802      -2.96571666       0.82406392
W        3.23509516       9.60499104       0.03200322       3.22638414      -6.92106682      -4.95554807      -1.18306260       1.05899214      -0.35526602
W        4.68970948      11.13237703       1.61294957      -7.45230585       2.30042450      -2.78222796       1.42922943       1.57949421      -0.14248041
W        3.10430885       9.66874609       3.12221531      -6.86077062       4.27719631       3.85774110       0.76779984      -0.75276767       0.12934242
W        4.75020958      11.21091962       4.70777213       5.74631359      -0.03695589      -2.26819665       0.32202299       0.69194586       0.68916451
W        3.26864756       9.58346702       6.32331568      -0.89674104       5.40626024      13.70172783      -0.98876646       2.54649811       1.65124409
W        4.80878087      11.20770374       8.03658142       2.97048789      -2.29721067      -2.19677574      -1.32854383       1.18859343      -0.56550011
W        3.11660888       9.65598286       9.49036866      -1.76705893       0.60791933       9.28430133       1.01568794      -0.37433647       2.00174184
W        4.76684577      11.08621558      11.15390097      -3.13695081       1.74090218      -4.99506306      -1.01661051       1.79566099       0.96614776
W        3.18703973       9.62779639      12.72473693      -0.27139901      -2.56085130       2.07668758      -1.06078971       0.80228341       0.34361437
W        4.72632067      11.30689389      14.41664632       5.23230191      -3.23774351      -2.31521543       0.22552844      -0.53305772      -0.63589806
W        3.19932082      12.83800076       0.09632518       1.46607828       0.54724466       4.18133118      -1.12782091       0.48154485      -0.93722202
W        4.79137305      14.53216769       1.63867401      -3.42035978       7.28156077      -3.50241223       0.32878732      -1.85668451      -0.49460627
W        3.10098941      12.79903080       3.07414268      -3.57492000      -4.25937341       2.28305218       0.91160021       0.13818753       1.53172535
W        4.67858669      14.42085962       4.76673140      -1.61244368       1.30040198      -4.56029759       1.43083179      -0.10087023      -0.12574163
W        3.21178707      12.77970678       6.35210164      -3.17489002       5.91262597      -9.84952333      -0.14292085       0.25731728       0.09704785
W        4.87430640      14.40190235       7.88058430       3.65826050      -3.94851186      -1.27705711      -1.79299029       0.44508614       1.59709107
W        3.03963095      12.73036187       9.59551985       2.29512091      -4.86515945      -8.35502973       2.48873043       1.52331971       0.15618388
W        4.85703495      14.19666647      11.15937227       1.52645509       0.45224920       0.32112816      -2.55443117       3.60235882      -0.10739940
W        3.23512888      12.77967023      12.80670350      -0.90400757      -0.96986084       1.42967848      -1.87156859       0.56871366      -0.96160511
W        4.80032810      14.42070863      14.34013611      -0.47380406      -3.45347108      -0.91003850      -0.84639437       0.81953165       0.33523045
W        6.50961483       0.13139834      -0.09220480       3.19728682       1.42227411      -0.50843539      -1.38604124      -0.31907226       0.71378453
W        8.01830764       1.70536216       1.47936361      -0.77488761       5.63931403      -4.58469797      -0.02672401      -0.08655460       0.71950696
W        6.40092952       0.11622281       3.17259394       2.30097648       5.49942580      -3.14542440      -0.04638047      -0.76535901       0.17234362
W        7.80923889       1.62858306       4.69553127      -0.62813145       2.06596545       4.51646338       2.84348731       0.75194238       0.43865984
W        6.32756543       0.03799009       6.38942102       2.05079078       4.97571669       0.18773260       0.25511432       0.25898690      -0.58560423
W        7.96578939       1.62437340       7.92571633       0.80068803       4.32217793       3.42760740       0.09608382       0.45493450       0.48217812
W        6.51784947       0.15629345       9.63941556      -2.95651620       5.36721852       1.67886257      -2.66311828      -0.71131285      -0.85400417
W        7.90976039       1.75832462      11.29398166      -0.52442434       1.80734168       2.63355495       0.52888810      -0.57553317      -2.72066323
W        6.38859503       0.08960872      12.76167276      -0.29524553      -3.86351007       0.30331695      -1.65772665       0.06565208      -0.80562321
W        7.91408379       1.64349001      14.18864287      -0.67289110      -5.11942057      -1.03275899       0.99644881       1.08784927       2.13573896
W        6.41632352       3.44783638      -0.13930246       5.43498765       2.70874711      -0.95443617      -1.11501343      -2.38785490       0.86040769
W        7.95223332       4.97720893       1.46571509      -2.73751848       1.98849772      -0.64840690       0.01951233      -1.34878661       1.11298863
W        6.40091461       3.31498095       3.04104456      -0.04454118      -4.82362080      -1.54596275      -0.29840270      -0.11553997       1.44742365
W        7.97921331       4.84354399       4.79414329       2.20628834       2.66344778       1.49181182      -0.18989843       0.55884217      -1.89718153
W        6.40501076       3.10347894       6.33905433       0.70080435      -2.42967320      -7.86090139      -1.02858053       2.45007565      -0.76910752
W        7.97970992       4.87365384       7.69290855       0.95122620      -4.71306401      -2.36390046      -0.94697563      -0.06978717       3.15036494
W        6.39325367       3.32495803       9.62993121       2.41559841      -1.24725815       1.76125315      -0.84884902      -0.41413598      -1.37485544
W        7.88777969       4.84204797      11.19783452       9.57225467       3.56593255       3.32723632      -0.21970459       1.37404114      -2.32102004
W        6.34293469       3.39357740      12.75336879       6.33018409       5.25201073       1.47235958      -2.05472373      -1.62966172      -1.47149466
W        7.89992712       4.77736792      14.17055698      -3.40983139       2.31472941       0.12964759       2.00819552       2.11478532       2.50461608
W        6.40518910       6.42807562      -0.14065264       7.31695868      -1.16697229      -0.51161675      -1.06670431       1.22537980       1.08246895
W        8.00321228       7.98001659       1.46365294      -3.54441144      -1.25240176      -2.78792186      -1.17663165       1.16596832       0.78837207
W        6.24401349       6.47830709       3.12393271       2.23535575       2.44158729       4.25007783       1.39293827      -0.17839489       0.76872918
W        7.94168715       8.16961690       4.68126003       3.41054560       8.74084494       3.10369840       0.35282385      -2.19181960       1.60722307
W        6.42020940       6.46575901       6.24379619      -2.62876467      -7.79193178       5.75948915      -0.33560525       0.37033553       1.03418991
W        7.95698629       8.16739145       7.86199313       7.63765561       2.13983304       6.01844560      -0.74630273      -0.66274356       0.90389300
W        6.35818307       6.54715446       9.37292671       7.53659847      -2.80389224      -1.86658886       0.20393838      -0.97700389       1.67043659
W        7.99164950       8.09010461      11.08928443      -1.16948685       0.23057724      -0.53909828      -1.86704988      -0.34842521       1.05159220
W        6.40660317       6.45277182      12.72018468       0.18103750       8.69141948       2.36886375      -0.99225365       1.64219771      -0.74720371
W        7.94051947       8.02431435      14.33032571       7.77926709       7.74909036       1.67851322       0.93025907       0.19407567      -0.55896079
W        6.39308822       9.69114649      -0.07686003      -7.09246933      -2.63733363       0.55802296       0.43346805      -0.03752962       1.96161480
W        8.10653093      11.23450425       1.58366977      -5.41276796      -0.62996480       3.12670508      -2.98188673       0.48487519      -0.62298345
W        6.39707485       9.52838634       3.29339034      -2.88973394      -2.72982830       4.67394909      -1.46739110       1.95240838      -2.21570542
W        7.91599577      11.21152545       4.77071620      -4.92730741      -0.03278391      -3.10434518       0.99060904       0.76581156       0.57959778
W        6.31358543       9.82821543       6.58329909      -5.59135156       4.87293344       2.03200481       1.66711911      -2.09081163      -2.52345222
W        7.98689057      11.42971950       8.02641075       6.03901440       5.16562224      -6.92789874      -0.03247999      -2.27845148      -0.38560566
W        6.28000284       9.65637333       9.68413985      -1.62257977       4.00694769       1.99933023       1.65504945      -0.12975263      -0.88807680
W        8.00069624      11.25146499      11.11102423      -4.35710445      -1.24957981       0.82978185      -0.55161769      -0.06048722       0.45879452
W        6.41448180       9.75855442      12.89109487       0.27938876       0.24929782       3.73292467       0.10650445      -1.05645185      -2.53130077
W        7.95248748      11.35900433      14.27485885      -0.90735779      -7.08770620       4.27123595       0.18292550      -0.85433140       1.55665915
W        6.27371757      12.87151637      -0.00207658      -4.18963552       1.97544014      -1.49603641       1.92225023       0.19659134       1.19219718
W        8.02598729      14.51456127       1.63028481       2.87392669       3.63237892       1.98710578       0.24108284      -0.90723296      -0.71386139
W        6.47928023      12.70574509       3.19001322       1.56401926       5.25540272       1.03031516      -1.52235425       1.66802398      -0.64791778
W        8.03167190      14.33832555       4.71230627      -2.22677336       6.56639742       1.33641555      -0.43928501       1.16552441       0.88367919
W        6.41863388      12.83930844       6.33953448       1.66417954       4.86044757       5.79100728      -0.66720408       0.01331598      -0.07299849
W        7.93109071      14.35412881       7.99721805       1.84228634       5.10661572      -3.45209391       0.83623847       2.07202033      -0.30108265
W        6.22375174      12.80562864       9.58707796       2.74442494       0.99649217      -1.25702303       2.64757510       0.29083883      -0.02163523
W        7.94877327      14.48907571      11.21156504       3.85298702      -2.77737532      -9.98383664       0.50413469      -0.94169996      -0.64009298
W        6.24101091      12.82781782      12.79754101     -12.43866178      -4.87844091      -4.96816428       2.41212528      -0.02016670      -0.72231248
W        7.96097105      14.47691195      14.35327230      -2.44827810      -3.14201693      -0.99632265       0.80981622      -1.35198266      -0.33879211
W        9.70333786       0.04551783      -0.15297919      -4.96952414      -0.99056046      -0.28369172      -1.75394686       0.93182333       0.99736109
W       11.08819184       1.62271139       1.52532216      -2.68245041       1.56906373      -1.14960397       0.99551997       1.72112609       0.17383676
W        9.73281028       0.18944741       3.20666510       0.94838731      -1.41277669       2.31265160      -2.67639997      -0.89346489      -0.02605022
W       11.25255586       1.73972536       4.78911706       0.80179391      -4.03179509      -5.69276046      -1.53174708      -0.01816045      -0.34290813
W        9.58019348       0.07445362       6.35246190       6.83626433      -0.57454140       4.87868778      -0.06754892       0.54433740       0.02904468
W       11.26798524       1.80435682       7.91282635      -1.14388569       0.22035637       0.28458407      -1.56839609      -0.92748812       0.14213124
W        9.60286029       0.19530687       9.59573726      -2.33774959      -0.78257134       5.31631351      -0.70377016      -0.71832610      -1.16387886
W       11.11008539       1.74873766      10.99872596       4.25992509       1.99807655      -0.38244086       0.26752853       1.12101094       1.48604022
W        9.51641302       0.12978053      12.69074081      -2.69971849       4.36266704      -1.62314310       0.95404656      -0.36277485       0.45108850
W       11.17573285       1.73605922      14.21191407      -2.08534316      -4.99570093      -3.16713428      -0.56919375      -0.10523691       0.68435895
W        9.52473395       3.21960662       0.03558716       8.75280142       3.06275300       2.45744386       0.14302049       0.99376822      -2.12058337
W       11.03924964       4.95147275       1.60494054      -3.47530631       7.57479882      -0.71922220       1.26513898      -0.49506329      -0.68151097
W        9.63708087       3.38072390       3.07041603       1.13270672       0.00348098       0.72624416      -1.75806540      -0.94433482       2.12384430
W       11.21599480       4.98863629       4.85698525      -4.43321790       1.52212443      -1.33279171      -0.88370398      -0.82974384      -1.25462645
W        9.58734843       3.30622133       6.40969949       1.98624022       3.35744325       4.33333314       0.19364865      -0.79342951      -2.25155313
W       11.09336897       4.82680774       7.99498860       0.10016060      -0.84420915       1.34182109       0.81696879       1.55309725      -0.29768526
W        9.42912352       3.29358529       9.45391162       3.42676356       1.76689859      -2.54503283       1.09900934       0.01813692       0.75931656
W       10.96430559       4.93266208      11.02961787      -7.47109631       4.10720259       2.69603637       2.25248014      -0.23615465       0.72869611
W        9.52102452       3.37726611      12.69263906      -5.02345217       1.55261914      -0.98171636       0.93089240      -1.74228566       0.06331112
W       11.21332306       4.88221196      14.26999893       0.52713228       0.10489536       1.53465609      -1.74891741       0.67932876       0.54598630
W        9.59087071       6.48671503      -0.08764725       2.92623469       8.84709006       8.25021755      -0.41322926      -0.36347984      -0.23568527
W       11.10337239       8.05396880       1.52487912       0.85042566       4.62530779      -1.00457521       0.06922828       1.14516909       0.88330154
W        9.50944727       6.53783419       3.15327318       1.04071003      -1.05782645      -9.88779027       0.09792737      -0.82849077       0.40987209
W       11.14898189       8.02497730       4.74031201      -2.14761320       1.75919742       7.14029501      -0.01095143       1.33927002       0.40704199
W        9.64443249       6.52476455       6.38735022      -3.38927768      -3.16858187      -2.38046459      -1.42721530      -0.37493848      -1.01392281
W       11.00692578       8.10081932       8.08143102       1.47986883       0.04597346      -3.41637076       1.99923421      -0.80383909      -1.74142555
W        9.27194991       6.46876741       9.52533983       4.12731598       8.70434718      -2.59494668       3.24375538      -0.11713238      -0.36675389
W       10.99597988       8.15094653      11.10756472      -0.17362290       5.95725854      -4.58085421       1.78847600      -1.00575415       0.81260790
W        9.54896628       6.39500295      12.64818536       5.65306496       3.56932114       1.85556771      -0.11668642       1.52971780       1.02693078
W       11.18431503       8.28500419      14.39826084       6.45194826       4.41404350      -5.19412623      -0.12535480      -3.18820891      -1.16751683
W        9.57186753       9.71902991      -0.01552756       0.12668365       0.95965779      -0.41005299      -0.26214703      -0.40587101       0.00616346
W       11.16525356      11.14586471       1.59819406      -9.05986025       2.36967039      -0.89558896       0.26352891       1.29330514       0.25911161
W        9.38229590       9.66473573       3.11343196      -0.71375106      -6.18740065      -2.16703442       3.08005124      -0.48381678       1.06501828
W       11.04935120      11.27661592       4.71874175       4.22637135       3.15058190       1.79755643       1.02324274      -0.88928668       0.88799104
W        9.62554778       9.64580738       6.38625537       4.34374489      -3.06025340      -1.72292635      -1.28967193       0.80321828      -0.89497496
W       11.17714547      11.23665637       7.88562268      -4.37407260       4.41776845       0.06610536      -0.27295045      -0.13670649       0.89543892
W        9.57182154       9.64826148       9.52029123       4.27754129       0.57597324      -3.40375715      -1.49460511       1.35589603       0.77533892
W       11.16022388      11.23639442      11.10222664       3.30218925      -3.94079940      -3.23132196      -0.58888054       0.41292771       0.31967823
W        9.51639109       9.50193196      12.84420385      -2.19600378       9.62309861      -3.06414604       0.20315393       2.75732473      -1.70032964