250
Lattice="15.927500000000002 0.0 0.0 0.0 15.927500000000002 0.0 0.0 0.0 15.927500000000002" Properties=species:S:1:pos:R:3:momenta:R:3 Temperature=315.5480741228913 energy=103.25756804311118 stress="-0.05871859662682465 -0.0036896073006364204 0.00040078138092871247 -0.0036896073006364204 -0.06083660844771547 -0.001454685671528557 0.00040078138092871247 -0.001454685671528557 -0.05497446028975991" free_energy=103.25756804311118 pbc="T T T"
W       -0.07418732       0.00533902       0.05802643      -0.62469921       1.23720494      -1.07714536
W        1.56683105       1.71084017       1.55852435       1.43707672       2.08837023      -3.26162891
W        0.06856396       0.10853589       3.15599269      -1.47405810       1.24175520       1.67910035
W        1.44339939       1.59099391       4.87006763       2.75079892      -3.05932112      -1.56990416
W       -0.01846861      -0.04816280       6.41719827       0.65255249       4.31393489      -0.39783691
W        1.56211388       1.62928551       8.03758068       3.04579070       2.22063217      -1.37807706
W        0.06008465      -0.02422424       9.61188361      -0.77490008       0.27068975       3.37876574
W        1.54675914       1.58740697      11.23097159       1.26857495      -1.22204001       1.29498441
W       -0.05171285       0.03976465      12.73341338       1.03152852       1.61115421       4.40582314
W        1.52213297       1.63181327      14.37333002      -2.81619840       3.98335317      -1.96541642
W        0.04154886       3.32379118       0.00539487       0.23236316       2.40358430       3.38350503
W        1.61354888       4.86643407       1.65937122       1.45353693      -2.06383240      -0.70914915
W       -0.06259594       3.24664826       3.21904967       1.73382969       2.01217595      -0.87953248
W        1.55577594       4.76933009       4.83005960      -1.31911421      -1.34160310       0.98606385
W       -0.02789151       3.21407301       6.43465224      -3.53081030       4.09534788      -0.76797279
W        1.61066117       4.83413286       7.96698977       2.32994085       0.07289905      -2.77714567
W       -0.09157607       3.24994325       9.58920327       1.58614634       1.31970405       0.91214515
W        1.51799206       4.88661622      11.19297563       0.77878437      -0.24549560       2.43761484
W       -0.07506912       3.27065193      12.77282300      -4.42194502      -2.38037228       4.13713529
W        1.52418473       4.83415276      14.36263908      -2.59904979       1.73947716      -2.73382995
W       -0.05456283       6.42767885       0.03026186      -1.80729402      -2.51737955      -0.24380799
W        1.57376822       7.94551823       1.60334532      -1.67791415       2.57833537      -2.22631673
W       -0.02435585       6.39130292       3.27068620       0.00536571       0.52905157       2.82973279
W        1.54398691       7.92741879       4.82287115       1.93223435      -0.70143355       1.68259125
W        0.02498921       6.35331821       6.45985211      -0.35047701       0.72249770       1.02276442
W        1.57754457       7.99076266       7.95049901       1.17562931      -0.53295159      -1.98826367
W       -0.02889692       6.43937096       9.63978809       1.58049362       5.30438979      -3.23587620
W        1.62029457       7.98120569      11.15898311      -1.72755885      -4.48085196      -0.05952028
W        0.00357136       6.42803275      12.84075909      -0.21676014      -4.01908473      -1.69949132
W        1.56420390       8.02066966      14.36639421      -0.97973724      -1.22228886      -0.11298674
W        0.01053617       9.54542387       0.07053053       4.01178724      -0.34421571       3.71708892
W        1.68251296      11.03345129       1.64279315      -0.00825276      -2.20974664       2.70251329
W       -0.00492781       9.58438429       3.22566399      -6.60859749      -3.19980960      -0.59399058
W        1.61093799      11.14506700       4.86233353      -0.00312808       4.45570820      -1.89316308
W        0.02796142       9.51333883       6.44803433      -1.58708386       3.10606600      -2.81328781
W        1.60443868      11.18180837       7.93344914      -3.47733892      -0.28220755      -0.58394963
W        0.01543843       9.56105243       9.59604050       5.01259212       0.04487119       1.89291504
W        1.59893171      11.17118943      11.12785046       1.23742250       2.61821095      -1.48677942
W        0.04496026       9.62114497      12.76543994       0.16517076      -2.98469750       1.00037250
W        1.67134960      11.18504794      14.39056450      -2.36124181      -3.75581196      -0.17689731
W        0.09861580      12.75946601       0.04025260      -2.87404859       1.21286533       3.11785635
W        1.65074346      14.30299378       1.61367100       1.54988278      -0.25040293       1.25278168
W        0.13718916      12.70082673       3.21058509       2.55081311      -4.86210146       2.07771084
W        1.61416545      14.21970728       4.84063624      -1.61639844      -0.04706420      -5.54557425
W       -0.05825172      12.72015173       6.39113368       7.05831675       1.38246731       3.13393622
W        1.59074971      14.31063143       7.92882755      -2.32354051      -1.97111505       3.19979407
W        0.09472613      12.77333006       9.58753488      -1.69636759      -2.25015556       1.51563489
W        1.60520847      14.36789410      11.10576390      -3.90617002      -0.32700968       0.99219784
W       -0.09596605      12.80223966      12.69350163      -1.60819437       2.63527104       0.96010779
W        1.56660089      14.40222705      14.34452626       3.73421250      -3.23298581       2.85140722
W        3.14285357       0.01534482      -0.01551904      -2.15440501       0.67052618       0.39924962
W        4.72155302       1.63023853       1.63236689      -1.45129133       2.53898378      -1.41837380
W        3.11107716      -0.01150657       3.25407394      -0.02783347       0.21911618      -1.65689501
W        4.74936705       1.56559426       4.76217733      -0.67215163       2.26834406      -1.38161048
W        3.15321880       0.00124834       6.34970028      -3.11093543      -1.25872953       0.82488871
W        4.74264714       1.59263437       7.97945104       3.64377216       3.05200573       0.24147898
W        3.23268037      -0.01211918       9.60090035       1.51569773      -1.99536508       0.63372508
W        4.74686506       1.63188958      11.14951268       0.27513651      -1.48534823       5.46719931
W        3.15331006       0.00752439      12.74978274      -3.17427755      -3.54665780      -2.02250375
W        4.76141780       1.59519213      14.32976724       1.32078339       0.84389498       3.92017242
W        3.17218657       3.25920434       0.01135537      -0.96427753      -5.86966086      -0.64653364
W        4.76231448       4.80664673       1.65150226       1.44352082      -3.69120839       0.50190475
W        3.13431042       3.12277770       3.19535903      -0.54463413       3.45187067       4.19949378
W        4.75195417       4.70366459       4.87045490       1.47109493      -3.31935692       2.83270370
W        3.12081308       3.21089250       6.41048337      -0.51285305      -0.17722082       2.91701934
W        4.70540581       4.77128991       7.95366775      -0.24432725       0.82909490       1.26753265
W        3.12350736       3.24316031       9.52528548       0.55307158      -0.02336468       0.30547770
W        4.63429478       4.81608762      11.16200088      -1.12050293       0.26161789      -3.89828081
W        3.01797140       3.18253929      12.77677498       2.13947852      -0.33969278       2.84027539
W        4.74024412       4.81939322      14.36395272      -3.11570902      -0.58231438       2.08295913
W        3.20960211       6.44406832       0.03431911       0.79055677      -2.55999833       1.91475935
W        4.75368780       7.93725321       1.61640603      -0.60977582      -2.20544986       0.06975109
W        3.14817630       6.33882874       3.23967569      -2.40357141      -0.02444822      -2.76273256
W        4.78924128       7.91491921       4.80600487       0.92889955      -1.30063857      -1.15094120
W        3.16677036       6.42888543       6.40370479       3.19475609      -1.41554851       3.54753746
W        4.76049329       7.92155143       7.98364617       2.25212208      -1.39511788      -0.53846198
W        3.16154724       6.35713405       9.49969025       2.70884884      -0.67467334      -1.74073079
W        4.82521912       7.91493031      11.21888703      -0.59254552      -2.11463889       4.22399133
W        3.15437187       6.35269881      12.72395155       3.43001241       0.74599870       0.48463148
W        4.73901410       7.95255052      14.32327923      -1.80931158      -2.00147321      -1.68784714
W        3.15271741       9.56747716       0.01165854      -0.99824081       0.19123795       0.06968559
W        4.86336289      11.11784158       1.63126614      -4.65964513       2.27303461      -1.95236924
W        3.22483884       9.47536944       3.19357059       1.07854356      -1.46346304       0.35223438
W        4.90526777      11.10299053       4.83123697       0.60946318       3.28460246      -0.39131658
W        3.23064828       9.55554890       6.35812972      -5.79162169       0.61416618       0.50417286
W        4.81427962      11.11903540       7.99274013       0.50955328       1.34536933       0.73842223
W        3.19448619       9.61400111       9.57917492       1.96555542       4.25770447      -2.68140104
W        4.79919797      11.13886805      11.18062264      -3.94092432      -3.06656886       1.25034931
W        3.21671035       9.61602446      12.76357117       1.89389717       2.39969182       0.00040258
W        4.74921661      11.19289463      14.31963322      -3.07386918      -4.13979896       5.83852619
W        3.23379213      12.67072142       0.04544465      -1.49376228       1.42671594      -0.59729802
W        4.85193223      14.37918344       1.65215596       5.61044932      -1.67227592       3.35263385
W        3.19221225      12.59542946       3.29875090      -2.47647442      -3.19804632       1.81766767
W        4.90754412      14.31974501       4.73038491       2.30039893       4.57148239       0.74755882
W        3.18048650      12.66127576       6.33327129      -1.83920835       2.28825148      -3.37769508
W        4.82422313      14.35656524       7.93528205       0.92770400       0.99680819      -0.15238629
W        3.22666247      12.70063033       9.58880693       1.22395204       3.12704739       0.19597395
W        4.87493172      14.32580449      11.12688503       2.46511357      -0.96888909       1.46959162
W        3.16042606      12.82598830      12.73596499       3.93559622      -2.84635305      -0.65716873
W        4.83277044      14.28393654      14.32830593      -1.70168297       3.00477499      -1.48979792
W        6.37351971       0.04253357      -0.08399133      -0.16479672      -0.81981533      -2.56630341
W        7.96762872       1.64955560       1.55038796       1.85557137       0.63193187      -0.13345852
W        6.35842984       0.02178335       3.14828082      -4.63408181       0.97485962      -1.74889243
W        7.94136108       1.60112660       4.83205605       1.61796855      -1.13850398      -2.50827882
W        6.39122506      -0.00442643       6.34766265      -1.74932275       0.15622945      -0.62452009
W        7.94292260       1.58488283       7.97814037      -1.09711826       1.33957910       0.33968168
W        6.38682477       0.00351015       9.57122214      -0.24035408      -0.58955066       0.17762013
W        7.90314633       1.69668195      11.27800001      -0.39094278       0.72286732      -0.49955545
W        6.46760470      -0.01432876      12.76448228       4.35205916       1.29464106       2.68398721
W        7.89073745       1.60098916      14.33443866       0.06093579       0.72076509      -0.19778264
W        6.34304361       3.18619274       0.07086637       4.06237333       2.57965992      -2.71576526
W        7.98329207       4.77790843       1.60993282       1.71363217       4.42357513       1.61563223
W        6.25899880       3.17059425       3.29474034      -2.97447638      -2.70155699      -0.51560142
W        7.90587842       4.81388115       4.82513317       2.57053183      -0.70136031       1.93328054
W        6.29306830       3.21162097       6.45483770       1.22783256       1.81664737      -1.33349713
W        7.94311522       4.82442931       7.92185278       0.20346373       1.98616071      -0.63124790
W        6.29588060       3.19869921       9.59407132      -2.36218153       3.54271323      -0.17813468
W        7.87372745       4.86854907      11.19515387       1.64094549      -2.29597726       3.44309160
W        6.29839283       3.23458570      12.83655615       4.19442778       0.18233037       0.77378293
W        7.91937226       4.79072020      14.43538143       1.42955954       4.50735391       1.11983649
W        6.42109315       6.35276782       0.03937085       1.03775619       0.68904822       0.75400403
W        7.91183680       7.90623562       1.59485980       0.62119568       3.33000079       1.08882296
W        6.34255086       6.34282914       3.23418148       5.60615232       1.28397037       1.14408140
W        7.92175430       7.88343506       4.74215577       2.30154428       2.02827338       0.52245708
W        6.32264000       6.38246982       6.46308480      -1.23232109      -0.58819218      -0.93285066
W        7.88389868       7.91355075       8.07116474      -2.26626059      -3.95311486       0.64697200
W        6.30017526       6.37754191       9.57354175       3.28184750       3.66795568       2.93867044
W        7.95042823       7.97148612      11.19268643      -2.85919034      -1.92036166       0.64721891
W        6.33096913       6.43103177      12.77207884      -1.58581997      -1.88627362       3.55928752
W        7.92296564       7.93106470      14.41016716      -2.09140526      -0.65874141       0.30797886
W        6.36456480       9.61115123      -0.03625045      -0.57706334      -0.52957527      -0.84253614
W        7.98013707      11.11224423       1.59831947      -0.08118101      -0.08521443       4.58381417
W        6.43414795       9.48333752       3.17115722      -1.46301871      -0.31694372      -0.65621080
W        8.01080895      11.06636846       4.81823836      -1.21648112      -0.35855314       0.79126997
W        6.38627472       9.56000200       6.37317586      -0.90890577       2.66862916       0.24725062
W        7.93757447      11.08697845       7.97603700      -0.58881861       1.27942364       2.70824657
W        6.31426672       9.53603959       9.67657907      -2.88221887      -0.55972584       2.84025591
W        7.98853568      11.12522204      11.12721266      -2.09270568      -2.40736344       3.85184711
W        6.33207703       9.56533162      12.76648292      -1.21142757       0.11148282      -2.74485722
W        7.91914991      11.10311709      14.39150742      -1.31169101      -1.04710698       2.52426540
W        6.38178515      12.79495073       0.09037782       0.36943310      -2.09358270      -1.51365879
W        7.97850910      14.29118370       1.63949114      -2.95771958      -0.09353489       3.13627103
W        6.45833307      12.78191249       3.21388328       1.52958639       1.58200971      -4.21508928
W        8.06889148      14.36576683       4.78161753      -0.74553919       1.32059703       4.60140365
W        6.39269735      12.73037082       6.35538650      -3.96144675      -1.02610264      -1.83209985
W        7.92704113      14.32367091       8.00526076       1.52896403       1.36900527       2.08623519
W        6.36135028      12.71888708       9.55933086      -1.61643282       1.08852903       3.98194724
W        8.01041971      14.35434905      11.17165305       1.41485458      -2.68587645       1.77174928
W        6.43712203      12.75899152      12.67240050      -3.54439799       0.37489956       0.53666090
W        8.02695311      14.34558025      14.38492814      -1.84158981      -0.09711198      -1.37497397
W        9.55296390       0.00520900      -0.02238602       4.15401565       0.17510610      -3.14053879
W       11.09845879       1.55867313       1.65047068      -2.87404059      -0.45592195      -1.20182329
W        9.59493507      -0.07820666       3.19667573       1.50736966      -0.42836009       1.36949536
W       11.08261429       1.49090021       4.81216380       0.90205617       1.75176225       0.15697212
W        9.56285083      -0.05493773       6.40150014      -3.49901799      -0.98240128      -0.11280630
W       11.10311605       1.52895312       7.95431796      -0.79547717      -1.27135616      -1.34140484
W        9.51762184      -0.00050070       9.59060426       0.35038028       0.51419261      -0.39665072
W       11.14465031       1.61435488      11.15962906       2.39508358       1.18921673      -1.36203555
W        9.58641625       0.00166812      12.80064002      -0.83618676       1.96586089      -1.12373536
W       11.13873868       1.62044915      14.38899558       0.65627742       0.63114302      -1.35748962
W        9.57118500       3.22509896       0.03428111      -3.17318979       2.39524978       3.71357526
W       11.11799105       4.77495953       1.70915685       3.82389071       2.57143501       0.72689673
W        9.52699920       3.10358545       3.19100572       2.55704878       3.10273206       2.28279169
W       11.10002471       4.75559686       4.80526550       1.11843923       0.10482590       1.22414183
W        9.52300214       3.15822491       6.27800429      -2.60282324      -2.93987215       1.12916717
W       11.13364000       4.75703494       7.99780652       0.53310722       2.44325829      -3.24864100
W        9.46666141       3.20764010       9.56786146       1.10144534       1.52809346      -0.76066706
W       11.07309939       4.77440804      11.20345653      -2.55863811      -0.61394286      -0.50577993
W        9.48916160       3.29166830      12.71979427      -1.30275110       5.73842695      -0.83572617
W       11.03968989       4.82231441      14.42618540       1.63053698      -1.64933006      -2.14608291
W        9.54839268       6.42070683       0.07383618      -1.22977814      -1.59862244      -1.08560385
W       11.19774178       7.99475514       1.59717475       0.71663672       0.49170195       0.45145664
W        9.51736667       6.37632926       3.25868375      -0.37318815       0.81641539       0.06974043
W       11.14004718       7.92986697       4.79225462      -2.56646032      -0.73405464      -2.53150473
W        9.56867123       6.35568036       6.39552220       0.51892733       0.83152791      -0.56827137
W       11.11170733       7.97416069       8.01747573       4.08180373      -1.14494971      -2.04877606
W        9.51485539       6.38356036       9.59875048      -0.44011181       2.10897530      -0.44626548
W       11.22215948       8.00546347      11.21855712       0.21548174      -2.41108922       0.05425382
W        9.49974585       6.32153365      12.75218030       2.25459088       3.78404905       0.04039190
W       11.13567926       7.98957861      14.32116286       1.47405280      -1.27009987       2.47185224
W        9.54335012       9.61818229      -0.04997726      -3.94425996       3.57326536      -0.83164757
W       11.15915249      11.18104334       1.62377036      -1.59782438      -1.15680735       2.65455251
W        9.57001894       9.54626337       3.22582471       0.09095717      -0.48761814       1.89438864
W       11.14597750      11.08624500       4.82927348      -3.44275170      -3.09928952      -2.46397571
W        9.51487315       9.52339611       6.34167519       0.29055944       2.35300381       0.04480960
W       11.13859082      11.11742481       7.94825048      -1.61999438      -2.66186246       3.11051208
W        9.59077169       9.61437827       9.61170903       0.72103414       0.08589379      -2.06630181
W       11.22419146      11.17586665      11.16597222       0.05429391      -2.18391792      -1.12184780
W        9.56777869       9.59359732      12.76223002       1.44875413      -1.11107905       0.51694762
W       11.19515842      11.19285010      14.35787283       0.48336546      -2.23848581      -0.65110853
W        9.63753518      12.70575082       0.07665756       1.08533011       2.12647077      -0.96753283
W       11.12779794      14.29674336       1.64300053      -2.31335764      -6.22986364       1.88573743
W        9.61670876      12.67445269       3.26523593      -0.70922104       2.24212519      -1.90942370
W       11.23764365      14.32900186       4.82963679      -2.89902039      -2.71599599       0.75311213
W        9.56326196      12.70454628       6.48635007      -3.51557306      -2.25086624      -0.02176043
W       11.12084506      14.34244009       8.01238187      -0.17211973       0.35026254       1.96291796
W        9.57791661      12.66916047       9.62435937      -3.53561528      -1.69612954      -0.53380540
W       11.19411012      14.39675566      11.12732591       0.31412629      -4.01608393       1.43111646
W        9.61808409      12.72326068      12.71830197       4.38758151      -0.44430213      -2.12896264
W       11.12395402      14.33449911      14.32960043      -1.79925910      -0.52212346       1.96071866
W       12.66849562      -0.03016118       0.07910829       3.04992879       3.73225501       1.02775491
W       14.32241415       1.59335580       1.57052516       2.02554336      -1.34067528       3.06063571
W       12.81069054       0.01333236       3.16010471       1.76670692      -2.79732347      -0.76999348
W       14.32442412       1.62053683       4.77616156       2.39244861       3.72644598       0.51779825
W       12.79552566      -0.00344960       6.40254107      -1.33920718      -0.30292800      -0.63100810
W       14.33656192       1.73776301       7.95027891      -1.96875373      -2.85650992       1.97653135
W       12.72646495       0.06976338       9.58082462      -2.34419464       0.52269459       4.77817089
W       14.30351498       1.62477852      11.20045367      -1.63503435       4.11698713       0.32383991
W       12.71766973       0.11062001      12.74610460      -2.31475386      -3.26483854      -3.39096554
W       14.31816862       1.66452953      14.35400547      -1.46052939      -1.53413397      -3.90235474
W       12.64497165       3.16998865       0.12942061      -0.56300805       4.83870484      -1.17178772
W       14.35324308       4.79336802       1.60225610      -2.09852511       1.06710677      -0.30592782
W       12.68374272       3.14567076       3.30447840      -0.20239557      -2.77726759       0.39094505
W       14.34467971       4.71652792       4.87428654       2.33312765      -0.39229261       0.51748856
W       12.71327281       3.15829270       6.37470712       1.50385469      -0.97744068      -0.72367187
W       14.24809961       4.80416596       8.03096402       0.34585533      -1.20435221       3.85182636
W       12.68279891       3.19160005       9.60020925      -0.44456564       4.08576582      -3.40103918
W       14.26801044       4.81278230      11.22295436       0.53692383      -2.82418181       0.47395935
W       12.69368534       3.22126109      12.80429748      -3.06582841       0.11233420       1.22029316
W       14.25057309       4.76301083      14.39302179       4.07856281       2.54075621      -0.84435098
W       12.69229005       6.34724402       0.04824282      -1.43435427       3.38262030       3.20984761
W       14.33192751       7.98606291       1.58184601       0.08422213      -0.60422526      -0.96388341
W       12.71527518       6.32763252       3.20477924      -1.27018100       3.30062926       6.16018423
W       14.32463500       7.92325741       4.81563348       0.52650478       0.93994266       0.15101521
W       12.66572692       6.37441478       6.45713902      -2.44023101      -0.83678455      -1.99752612
W       14.27575229       7.93660783       8.08622348       1.10120462       2.27193185      -1.14305020
W       12.68923611       6.42357798       9.66237704       2.50718042      -2.38742181      -2.39852118
W       14.39912694       7.98186593      11.23104048      -1.28727424      -0.82030956      -1.40139036
W       12.67600100       6.33604121      12.80186852       0.66611292       0.20933534      -1.26624919
W       14.27808799       7.90909029      14.38171131      -1.40501821      -0.63679915       2.36884247
W       12.75359200       9.56785865      -0.01975522      -0.51281423       0.36356609      -0.95877442
W       14.36960859      11.12083874       1.64246296       0.86590108      -0.69928447       1.23321373
W       12.76988259       9.54656375       3.22168646      -0.93126462       3.39368693       0.74092010
W       14.34401130      11.13362763       4.73597101      -1.19936343      -1.87834250      -1.04194166
W       12.79445194       9.55478777       6.39889773      -0.71707594      -0.72218283       3.34245741
W       14.37201759      11.17125707       8.02915783      -4.84005599      -0.05651639      -2.17514275
W       12.76425559       9.59698979       9.57551245       4.87063165      -2.75449518       1.67192262
W       14.33262669      11.10373591      11.22984542       2.31987902       1.23019964      -2.18729398
W       12.80164850       9.55802376      12.81062785       2.87775184       1.27915008      -4.30753673
W       14.33588573      11.21596141      14.40186503      -2.96127984      -1.02763594      -1.88959916
W       12.79826209      12.77977549      -0.00367019      -2.75697698      -2.75855042       1.76079655
W       14.35685530      14.34923195       1.59615698       0.16574903       3.17111484      -4.12818137
W       12.72961472      12.74722126       3.19614459       5.68772321       1.93280198       3.42547976
W       14.37690575      14.38222212       4.72790232      -3.28847714      -1.70200012       2.81350311
W       12.81683052      12.84912695       6.36527961       0.20467788       1.14610924       2.27830970
W       14.32229741      14.38219347       8.02499819       2.45128386      -1.74904646      -2.71738821
W       12.79066048      12.72089884       9.58594136      -0.65816804      -1.39046486       1.33411360
W       14.30811481      14.28075316      11.20239714       0.71137981       0.90307263      -0.30209677
W       12.73099470      12.78345845      12.74600825       3.46409788      -1.22762960       1.24170320
W       14.27274925      14.38524283      14.39162698      -0.98602199      -2.53723599      -1.36976679
250
Lattice="15.927500000000002 0.0 0.0 0.0 15.927500000000002 0.0 0.0 0.0 15.927500000000002" Properties=species:S:1:pos:R:3:momenta:R:3 Temperature=878.3357188323727 energy=103.25756804311118 stress="-0.05871859662682465 -0.0036896073006364204 0.00040078138092871247 -0.0036896073006364204 -0.06083660844771547 -0.001454685671528557 0.00040078138092871247 -0.001454685671528557 -0.05497446028975991" free_energy=103.25756804311118 pbc="T T T"
W       -0.05953135       0.02184130      -0.06413171      -6.02213712      -2.49362835       3.49469106
W        1.58748281       1.70042279       1.52914570       0.01145384      -1.14271346       1.27430057
W        0.00441846       0.15186076       3.14062833      -2.80644678       0.17671884       2.00490799
W        1.60707076       1.63209828       4.72965476      -3.58821558      -2.52753930      -2.36892841
W       -0.04037613       0.02579252       6.32862085      -1.95049154       1.32353971       3.98908043
W        1.44979920       1.63417011       8.15976160      -4.96840001      -5.86255017       3.20015749
W       -0.04450087      -0.00847469       9.49515487      -2.78970742      -1.68457974       0.11165658
W        1.73267954       1.59116531      11.02918070       0.60286332       0.42483707       6.18495909
W        0.13211054       0.17014115      12.68174595      -3.88454853       6.02227126      -3.18312829
W        1.73498770       1.73757248      14.26394820      -2.98931224      -0.63650234       2.57931896
W       -0.16597955       3.07074475      -0.09798428       0.44404255      -1.76767941      -1.40347109
W        1.62950137       4.80398960       1.62058205      -1.48169511      -4.92419491      -4.59727454
W       -0.02776294       3.23346830       3.20528416      -4.95333414      -0.25239730      -3.69408216
W        1.53383905       4.87259241       4.88179210       3.82921445       2.78168591       4.40050663
W       -0.02382133       3.15266900       6.44686949      -3.29331129       2.30126722       1.46298089
W        1.63879415       4.80286322       7.94624308      -3.15979273       0.93476661       4.66408780
W       -0.10399257       3.25276269       9.68830426       1.90362746      -0.43117770      -4.01553359
W        1.82115337       4.86142423      11.14566104       2.47001135       6.07404648       0.10381627
W        0.20442733       3.16606626      12.67373054       3.87980798      -6.69336202       2.72907224
W        1.50231027       4.85371160      14.47467237       7.10979422       5.02283378      -6.62053892
W       -0.13381627       6.33038008      -0.16358375      -0.49779485      -5.00376294      -3.16604511
W        1.60437623       8.06656398       1.60946645       1.25604056       7.59877283      -0.32432623
W       -0.00754101       6.50830565       3.26636555      -4.07397420       4.21717356       3.37997084
W        1.51804854       8.04813952       4.72641981       0.96124037      -4.28211633      -0.40957790
W        0.00526787       6.48133604       6.31219985      -1.34061452      -1.01081403      -3.09636578
W        1.62559935       7.92088290       7.89124475       2.40488421      -3.73398823       0.99837512
W        0.01391401       6.41097658       9.41522440      -1.40028198      -2.81565362      -1.90771739