250
Lattice="15.874458489660668 0.0 0.0 0.0 15.874458489660668 0.0 0.0 0.0 15.874458489660668" Properties=species:S:1:pos:R:3:forces:R:3 strain_type=Hydrostatic strain_value=-0.01 energy=32.61029770806231 stress="-0.017287547655245247 -3.219504421756938e-05 0.000925617398530261 -3.219504421756938e-05 -0.017874691772517062 0.0014392378127042003 0.000925617398530261 0.0014392378127042003 -0.01621936883125399" free_energy=32.61029770806231 pbc="T T T"
W        0.00000000       0.00000000       0.00000000      -1.21079130       0.95889469      -1.54350717
W        1.58744585       1.58744585       1.58744585      -0.39215485      -0.37076743      -0.64363530
W        0.00000000       0.00000000       3.17489170       0.17865527      -1.96896234       1.74998770
W        1.58744585       1.58744585       4.76233755      -1.32896032       0.16255429       0.00284819
W        0.00000000       0.00000000       6.34978340       0.88214439      -0.09218594      -0.02638242
W        1.58744585       1.58744585       7.93722924       0.79470064       0.47747542      -0.20417540
W        0.00000000       0.00000000       9.52467509      -1.10469525       0.41287720      -1.52651289
W        1.58744585       1.58744585      11.11212094       3.34070616      -1.09650050       0.18907885
W        0.00000000       0.00000000      12.69956679       2.45869821      -0.83106575       0.46914896
W        1.58744585       1.58744585      14.28701264       0.20990141       0.27946385      -0.01463509
W        0.00000000       3.17489170       0.00000000       0.49252977      -0.80551029      -1.64946819
W        1.58744585       4.76233755       1.58744585       0.56292305       1.18117170      -0.59566616
W        0.00000000       3.17489170       3.17489170      -2.03803434      -0.27980858       0.47069193
W        1.58744585       4.76233755       4.76233755      -1.76019461       0.44667800      -0.26178138
W        0.00000000       3.17489170       6.34978340       0.84269613       0.90274212       0.22723909
W        1.58744585       4.76233755       7.93722924       0.16891339       0.14974356       1.42500126
W        0.00000000       3.17489170       9.52467509      -2.55604404       0.89116063      -0.53583854
W        1.58744585       4.76233755      11.11212094      -1.60899930      -0.39677083      -1.83317172
W        0.00000000       3.17489170      12.69956679       0.01152936      -0.86915873       1.25018485
W        1.58744585       4.76233755      14.28701264      -0.31770532      -0.65644517      -1.34622597
W        0.00000000       6.34978340       0.00000000       0.00897112      -0.67299656       0.80617079
W        1.58744585       7.93722924       1.58744585      -0.39375020      -2.60449744       0.64889751
W        0.00000000       6.34978340       3.17489170      -0.64475307      -0.31864629      -0.71070524
W        1.58744585       7.93722924       4.76233755      -0.52695807      -0.51992489       0.73212369
W        0.00000000       6.34978340       6.34978340       1.29520847       1.31147865       1.08458103
W        1.58744585       7.93722924       7.93722924      -2.33333075       0.21601771       1.93424496
W        0.00000000       6.34978340       9.52467509       1.28978301       0.04802103      -1.03625459
W        1.58744585       7.93722924      11.11212094      -0.43432584      -1.54019585      -3.13971179
W        0.00000000       6.34978340      12.69956679      -0.02828436       0.44321383       1.90454249
W        1.58744585       7.93722924      14.28701264       0.69888412       1.61979192       0.42298695
W        0.00000000       9.52467509       0.00000000       0.10886944       0.88354516       3.39500302
W        1.58744585      11.11212094       1.58744585      -0.16642127       1.42440152      -0.21391938
W        0.00000000       9.52467509       3.17489170      -1.05971695       0.33043061       1.35117909
W        1.58744585      11.11212094       4.76233755       1.53616569       0.59832234      -0.79921342
W        0.00000000       9.52467509       6.34978340      -1.69327544      -1.22465191       0.46830766
W        1.58744585      11.11212094       7.93722924      -2.84074533      -0.39487877       0.13497820
W        0.00000000       9.52467509       9.52467509       0.37433940      -1.40949323      -3.53117491
W        1.58744585      11.11212094      11.11212094       2.97498224      -2.32902839       0.18318278
W        0.00000000       9.52467509      12.69956679      -3.19523742      -0.22024182       0.73106600
W        1.58744585      11.11212094      14.28701264       0.28005879       0.02577823       0.33603156
W        0.00000000      12.69956679       0.00000000       2.05973294       0.32413017       1.03793255
W        1.58744585      14.28701264       1.58744585       0.52733520      -1.45654024       2.16507794
W        0.00000000      12.69956679       3.17489170      -0.25077635       0.59988292      -0.45464965
W        1.58744585      14.28701264       4.76233755       0.66400700       0.41802916      -1.48891622
W        0.00000000      12.69956679       6.34978340       0.13716401      -0.71800002       2.07187919
W        1.58744585      14.28701264       7.93722924      -0.11795013       0.13702586      -1.01555732
W        0.00000000      12.69956679       9.52467509       0.06288015      -0.22024528      -2.76822313
W        1.58744585      14.28701264      11.11212094       0.06039268       3.73691926       0.34400345
W        0.00000000      12.69956679      12.69956679      -0.12112664      -1.29888354       1.37028936
W        1.58744585      14.28701264      14.28701264       0.12481629      -0.29485508      -2.11658660
W        3.17489170       0.00000000       0.00000000       0.80186737      -1.27384270      -1.70101782
W        4.76233755       1.58744585       1.58744585      -0.52974179       0.93278010      -0.63291236
W        3.17489170       0.00000000       3.17489170      -1.36694205       0.21826165       1.84166758
W        4.76233755       1.58744585       4.76233755       1.36329386      -0.99409995       0.17960553
W        3.17489170       0.00000000       6.34978340       0.68267591      -0.94490202      -0.65242846
W        4.76233755       1.58744585       7.93722924      -0.73560264      -1.05817667      -1.69588205
W        3.17489170       0.00000000       9.52467509      -0.98591957      -0.79774219       0.28394915
W        4.76233755       1.58744585      11.11212094      -0.68864398      -0.75082972       0.42367057
W        3.17489170       0.00000000      12.69956679      -0.01280037      -0.38537618       2.24532280
W        4.76233755       1.58744585      14.28701264       0.83344692       1.06413824       1.85658217
W        3.17489170       3.17489170       0.00000000       0.40237862       0.04450050       0.06204465
W        4.76233755       4.76233755       1.58744585      -2.83414438      -2.60549730       1.98367268
W        3.17489170       3.17489170       3.17489170       0.89137053       0.83317262      -2.72324526
W        4.76233755       4.76233755       4.76233755      -0.58463652       1.24457630       0.09513795
W        3.17489170       3.17489170       6.34978340      -0.63580975      -0.51028172      -1.12474404
W        4.76233755       4.76233755       7.93722924       1.14718861      -0.89414363       0.13824396
W        3.17489170       3.17489170       9.52467509      -0.41207977       0.32954303      -1.19867677
W        4.76233755       4.76233755      11.11212094      -1.97728241       0.88015216      -0.33876986
W        3.17489170       3.17489170      12.69956679       1.87613783       1.37850477       0.92330871
W        4.76233755       4.76233755      14.28701264       1.14109766      -0.31819619      -0.38448959
W        3.17489170       6.34978340       0.00000000       1.28515466      -0.48452744       0.61998673
W        4.76233755       7.93722924       1.58744585       0.04410254      -0.29063295       0.02728458
W        3.17489170       6.34978340       3.17489170       2.04635542      -0.99658234      -0.12985448
W        4.76233755       7.93722924       4.76233755       0.66925023       1.28818969       0.13208832
W        3.17489170       6.34978340       6.34978340      -1.43806270      -0.20055285      -0.33391241
W        4.76233755       7.93722924       7.93722924       0.85465417      -1.35927836      -1.23479710
W        3.17489170       6.34978340       9.52467509      -0.17103359      -0.57676624       0.69400913
W        4.76233755       7.93722924      11.11212094       0.29056939       0.48747179       0.16650946
W        3.17489170       6.34978340      12.69956679      -1.87912489      -0.53898853      -0.14489251
W        4.76233755       7.93722924      14.28701264      -0.52904959      -0.55035850       1.19679882
W        3.17489170       9.52467509       0.00000000       0.49521618       0.62917635      -0.35186760
W        4.76233755      11.11212094       1.58744585      -1.84141455      -0.37040121       1.94753520
W        3.17489170       9.52467509       3.17489170       1.26164527       0.51303764      -1.70967103
W        4.76233755      11.11212094       4.76233755       0.45440624      -0.69537742       0.06824361
W        3.17489170       9.52467509       6.34978340      -1.80541044       0.57963648      -0.96181470
W        4.76233755      11.11212094       7.93722924       0.08098589       2.19197663      -0.51282464
W        3.17489170       9.52467509       9.52467509       0.66172709       0.96156920       0.07048307
W        4.76233755      11.11212094      11.11212094       1.12615561      -0.77733538      -0.35581733
W        3.17489170       9.52467509      12.69956679       2.19857953      -0.57947418       1.99778362
W        4.76233755      11.11212094      14.28701264      -1.89505829      -0.17084738      -1.37693280
W        3.17489170      12.69956679       0.00000000      -0.53051274       1.00226465       0.55786364
W        4.76233755      14.28701264       1.58744585      -0.23485598      -1.05519363       0.00209932
W        3.17489170      12.69956679       3.17489170      -0.92489603       1.57526408      -2.10132183
W        4.76233755      14.28701264       4.76233755      -0.52147616       1.30818666       0.11290147
W        3.17489170      12.69956679       6.34978340       0.23011142       0.62817284       0.65104780
W        4.76233755      14.28701264       7.93722924      -2.91589105       1.80179684       1.15997558
W        3.17489170      12.69956679       9.52467509       0.78923871      -1.04904272       1.33111407
W        4.76233755      14.28701264      11.11212094      -0.01373788       0.80765834      -1.03345873
W        3.17489170      12.69956679      12.69956679      -1.15898115       3.68627082      -0.30474072
W        4.76233755      14.28701264      14.28701264      -0.60910362       0.36279058      -0.67427217
W        6.34978340       0.00000000       0.00000000       0.09291902       0.15486413       0.99520240
W        7.93722924       1.58744585       1.58744585      -0.83304035       2.98469140      -0.94313643
W        6.34978340       0.00000000       3.17489170      -0.16702997      -1.57859131      -0.44532892
W        7.93722924       1.58744585       4.76233755      -1.44000584      -0.76459497       0.01009327
W        6.34978340       0.00000000       6.34978340      -0.74152903       0.10863054      -0.63808681
W        7.93722924       1.58744585       7.93722924      -2.27454561       1.94861759       0.35313649
W        6.34978340       0.00000000       9.52467509      -0.01401423       0.73392030       0.34843324
W        7.93722924       1.58744585      11.11212094       2.43952425       0.99413202      -1.15992909
W        6.34978340       0.00000000      12.69956679      -0.66203388      -0.87963643      -0.67088416
W        7.93722924       1.58744585      14.28701264      -1.68351579      -0.78111443       0.93737767
W        6.34978340       3.17489170       0.00000000       1.66202094      -1.14520731       0.10842216
W        7.93722924       4.76233755       1.58744585       0.15126987      -1.65746703      -0.87711695
W        6.34978340       3.17489170       3.17489170      -0.15172583      -0.11233025      -0.55395548
W        7.93722924       4.76233755       4.76233755       0.34838593       0.22637611      -0.05155766
W        6.34978340       3.17489170       6.34978340       0.89467261      -0.92640285       1.25902575
W        7.93722924       4.76233755       7.93722924      -1.52809570      -0.32856128       0.06717701
W        6.34978340       3.17489170       9.52467509       0.38795813      -0.28755866      -1.49101991
W        7.93722924       4.76233755      11.11212094       1.28926241      -0.16559719      -0.65973953
W        6.34978340       3.17489170      12.69956679      -0.38120633       0.44769047       0.18277727
W        7.93722924       4.76233755      14.28701264       0.69068651      -0.76244811      -1.46431034
W        6.34978340       6.34978340       0.00000000       0.55964754       2.74474700      -0.85942332
W        7.93722924       7.93722924       1.58744585      -0.10251495       3.52919274       0.36600354
W        6.34978340       6.34978340       3.17489170      -1.72136895      -0.04142481       0.76208235
W        7.93722924       7.93722924       4.76233755       0.36151048      -0.73633846       0.23095360
W        6.34978340       6.34978340       6.34978340       0.73391266       1.38525385       2.67212372
W        7.93722924       7.93722924       7.93722924       0.64802954      -1.82824304      -1.82462793
W        6.34978340       6.34978340       9.52467509       0.04129603       0.17470857       0.46057772
W        7.93722924       7.93722924      11.11212094      -0.58359615       0.66390947       0.92062216
W        6.34978340       6.34978340      12.69956679       0.52493307      -0.87810204      -0.65429775
W        7.93722924       7.93722924      14.28701264      -1.30091643       0.14806047       0.07681787
W        6.34978340       9.52467509       0.00000000      -0.22841747      -1.20258688      -1.15898385
W        7.93722924      11.11212094       1.58744585       2.13682211       0.88339137      -0.68158199
W        6.34978340       9.52467509       3.17489170       0.33012493      -0.51161085       0.02767918
W        7.93722924      11.11212094       4.76233755      -0.86720146       0.06462513       1.53076355
W        6.34978340       9.52467509       6.34978340      -0.34823926      -0.85877958      -0.70987080
W        7.93722924      11.11212094       7.93722924      -0.52820266       0.74920421      -1.94859436
W        6.34978340       9.52467509       9.52467509      -0.48389802       0.14236756       0.97896406
W        7.93722924      11.11212094      11.11212094      -0.23455105       0.03325082      -2.11223974
W        6.34978340       9.52467509      12.69956679       0.06136029      -0.24995568      -0.34970972
W        7.93722924      11.11212094      14.28701264       2.13691470       2.16472012       2.01476181
W        6.34978340      12.69956679       0.00000000       0.80231065       0.51500385       2.48867978
W        7.93722924      14.28701264       1.58744585      -1.27751337      -0.26896287      -0.79382944
W        6.34978340      12.69956679       3.17489170       2.64573085      -0.54886790      -1.09322870
W        7.93722924      14.28701264       4.76233755      -0.37197173       0.66970343      -0.21787476
W        6.34978340      12.69956679       6.34978340       1.80527024       2.07242392       0.14050628
W        7.93722924      14.28701264       7.93722924       1.46233744      -1.14523535       1.18352490
W        6.34978340      12.69956679       9.52467509       2.03725806      -2.10750533       1.61188199
W        7.93722924      14.28701264      11.11212094       0.46741435       0.51183369      -0.57229810
W        6.34978340      12.69956679      12.69956679      -0.04545840      -1.32213103      -1.10367880
W        7.93722924      14.28701264      14.28701264      -0.25561526      -0.70071465      -0.56312575
W        9.52467509       0.00000000       0.00000000       0.36472889       1.59999169      -1.28150875
W       11.11212094       1.58744585       1.58744585       1.33051378      -0.10383598       1.33292924
W        9.52467509       0.00000000       3.17489170       2.01740994      -0.31402166       0.17469883
W       11.11212094       1.58744585       4.76233755       2.32357009      -3.14179508       0.31870611
W        9.52467509       0.00000000       6.34978340       0.49565789      -2.85125635      -2.31037931
W       11.11212094       1.58744585       7.93722924       1.15570952      -0.19409109       0.47817309
W        9.52467509       0.00000000       9.52467509       1.44540721       0.40367610       1.83673950
W       11.11212094       1.58744585      11.11212094      -0.01628714       0.68670469      -0.32448952
W        9.52467509       0.00000000      12.69956679       1.89098212      -0.02492278      -0.16988069
W       11.11212094       1.58744585      14.28701264      -0.94776299      -0.95622716      -1.45280434
W        9.52467509       3.17489170       0.00000000       1.22391897      -0.71544575       0.29757329
W       11.11212094       4.76233755       1.58744585      -1.05472087       1.03171295      -1.31965126
W        9.52467509       3.17489170       3.17489170       0.29589833       1.59902617      -0.53354345
W       11.11212094       4.76233755       4.76233755      -0.66079207       0.30670409      -0.30995993
W        9.52467509       3.17489170       6.34978340      -1.86060146       1.21945429      -1.77242144
W       11.11212094       4.76233755       7.93722924      -0.06702296      -1.03015999       0.53599089
W        9.52467509       3.17489170       9.52467509      -0.35853794      -1.10153454       0.72632921
W       11.11212094       4.76233755      11.11212094       0.63842114      -0.39111940       0.75171321
W        9.52467509       3.17489170      12.69956679      -0.98879988      -2.01201022      -0.10271949
W       11.11212094       4.76233755      14.28701264       0.72935039       0.26312743      -0.49879309
W        9.52467509       6.34978340       0.00000000       0.01349219      -0.41850871       0.13371788
W       11.11212094       7.93722924       1.58744585      -1.12239331      -2.34929749       2.31030182
W        9.52467509       6.34978340       3.17489170       1.19640032       0.96637353       0.50274184
W       11.11212094       7.93722924       4.76233755      -2.32506415      -1.77275830      -1.05638094
W        9.52467509       6.34978340       6.34978340      -0.16862768       2.49847049      -0.82085585
W       11.11212094       7.93722924       7.93722924       0.99032597       1.19695919       0.69509143
W        9.52467509       6.34978340       9.52467509       0.03678391       1.19962780       1.96667410
W       11.11212094       7.93722924      11.11212094      -0.99182426      -2.56165755       0.40724189
W        9.52467509       6.34978340      12.69956679       0.34661449       2.20344760       0.04256005
W       11.11212094       7.93722924      14.28701264       1.14972166      -2.70634562      -0.75741780
W        9.52467509       9.52467509       0.00000000      -0.07427408      -0.66106486       0.34366744
W       11.11212094      11.11212094       1.58744585       0.18156471      -0.57345364      -0.16860071
W        9.52467509       9.52467509       3.17489170       1.99350173       2.29075990      -0.64750116
W       11.11212094      11.11212094       4.76233755      -0.28938401       1.98761179       0.21486381
W        9.52467509       9.52467509       6.34978340      -0.83336043      -0.80289343      -0.14645487
W       11.11212094      11.11212094       7.93722924       0.62044560       1.15126400      -1.45236503
W        9.52467509       9.52467509       9.52467509       0.84163931      -1.71209265       0.14869063
W       11.11212094      11.11212094      11.11212094       1.20885246       0.09113826       1.34659743
W        9.52467509       9.52467509      12.69956679      -0.29050964       1.48175725      -0.73922792
W       11.11212094      11.11212094      14.28701264       1.15597503       1.18407351       1.51690376
W        9.52467509      12.69956679       0.00000000      -0.52610986      -0.67171563       0.83296871
W       11.11212094      14.28701264       1.58744585      -1.16454742      -0.84141729       1.58045141
W        9.52467509      12.69956679       3.17489170      -1.39169654      -1.18477128       0.77719658
W       11.11212094      14.28701264       4.76233755       0.61653297       1.13884103      -0.60056472
W        9.52467509      12.69956679       6.34978340      -0.50361209       0.83228405       1.33303697
W       11.11212094      14.28701264       7.93722924      -0.91324447       0.09320706      -1.24488475
W        9.52467509      12.69956679       9.52467509      -0.16501786       0.49223078       0.15715894
W       11.11212094      14.28701264      11.11212094      -0.50768939       0.17128542      -0.30039124
W        9.52467509      12.69956679      12.69956679      -1.34465986       1.77180956       0.69400537
W       11.11212094      14.28701264      14.28701264      -1.46084143      -1.68493212      -0.54412159
W       12.69956679       0.00000000       0.00000000      -0.69708870       0.31230984       1.10360493
W       14.28701264       1.58744585       1.58744585      -0.85176491      -0.13126290      -0.32334026
W       12.69956679       0.00000000       3.17489170      -2.20014775      -0.68960305       0.38251562
W       14.28701264       1.58744585       4.76233755       0.49020814       2.85031857      -0.08516107
W       12.69956679       0.00000000       6.34978340       1.92346720       0.02401029      -0.76798305
W       14.28701264       1.58744585       7.93722924      -1.06814915       0.76698927       0.95572441
W       12.69956679       0.00000000       9.52467509      -1.33990251      -0.37644573      -1.24630794
W       14.28701264       1.58744585      11.11212094      -2.45780904       1.13051968      -2.34286443
W       12.69956679       0.00000000      12.69956679      -1.10562233       0.58046169       0.03846121
W       14.28701264       1.58744585      14.28701264       0.47904552       2.06057757       3.60536104
W       12.69956679       3.17489170       0.00000000      -0.08937321      -1.11875852      -0.88978369
W       14.28701264       4.76233755       1.58744585      -0.53866986       1.05075828      -0.10608121
W       12.69956679       3.17489170       3.17489170       0.16541612       0.60241975       1.44602040
W       14.28701264       4.76233755       4.76233755       2.48538209      -0.45274089      -0.44017630
W       12.69956679       3.17489170       6.34978340      -0.36994733      -1.39128189       0.54482959
W       14.28701264       4.76233755       7.93722924       2.93717137      -0.32322019       2.92391200
W       12.69956679       3.17489170       9.52467509       1.03755284       0.20827549      -1.46847608
W       14.28701264       4.76233755      11.11212094      -1.95664781      -0.54839467      -0.46650831
W       12.69956679       3.17489170      12.69956679      -0.36861442       0.48314067      -0.51653205
W       14.28701264       4.76233755      14.28701264       2.80842471      -0.68082807      -1.64531276
W       12.69956679       6.34978340       0.00000000      -3.05820494      -1.75127592      -0.43701113
W       14.28701264       7.93722924       1.58744585       1.66128585      -0.45881680       3.00481718
W       12.69956679       6.34978340       3.17489170       0.12840588       0.35705857       0.34596929
W       14.28701264       7.93722924       4.76233755       0.88301626      -1.26300329       0.40561914
W       12.69956679       6.34978340       6.34978340      -0.13996539      -1.72534877      -0.86006969
W       14.28701264       7.93722924       7.93722924       1.21292605      -0.99045823      -1.40230356
W       12.69956679       6.34978340       9.52467509       0.82193054      -1.20969866       0.64838969
W       14.28701264       7.93722924      11.11212094      -1.41330920       0.69469509       1.25950664
W       12.69956679       6.34978340      12.69956679       0.73210315       1.16376316       0.10824387
W       14.28701264       7.93722924      14.28701264      -0.11083072       0.43312751      -2.84750489
W       12.69956679       9.52467509       0.00000000      -0.69039748       0.43566074      -0.55434538
W       14.28701264      11.11212094       1.58744585       0.14999436       1.03565681       1.83589441
W       12.69956679       9.52467509       3.17489170       0.58831767       1.65353560      -1.79453349
W       14.28701264      11.11212094       4.76233755      -0.62142543       0.47328971      -2.28618087
W       12.69956679       9.52467509       6.34978340      -0.68180129       0.20006414       1.48628291
W       14.28701264      11.11212094       7.93722924      -0.61866164       0.69298450      -0.83537564
W       12.69956679       9.52467509       9.52467509       0.94173437      -0.37130841      -0.16751787
W       14.28701264      11.11212094      11.11212094      -1.97174127       1.91189595       3.82833861
W       12.69956679       9.52467509      12.69956679       0.98128637       1.66978828      -0.58217733
W       14.28701264      11.11212094      14.28701264      -0.73611609      -0.76276694      -2.87906235
W       12.69956679      12.69956679       0.00000000       1.15975523       0.26775193       0.64125712
W       14.28701264      14.28701264       1.58744585       0.47485230       0.63837665       0.03188627
W       12.69956679      12.69956679       3.17489170      -0.80065571      -1.44261547      -1.38549514
W       14.28701264      14.28701264       4.76233755       1.11430107      -0.52931565       1.04307869
W       12.69956679      12.69956679       6.34978340       0.22477572       0.74210338       2.64901517
W       14.28701264      14.28701264       7.93722924      -0.56636824      -2.81274309       0.83038821
W       12.69956679      12.69956679       9.52467509       0.56409791       0.02933263      -0.31605455
W       14.28701264      14.28701264      11.11212094      -1.59079468      -0.82117744       1.91053138
W       12.69956679      12.69956679      12.69956679      -0.52185379      -1.53851212      -0.68044083
W       14.28701264      14.28701264      14.28701264       1.46085553      -0.33498902      -1.27534346
250
Lattice="15.881094968962365 0.0 0.0 0.0 15.881094968962365 0.0 0.0 0.0 15.881094968962365" Properties=species:S:1:pos:R:3:forces:R:3 strain_type=Hydrostatic strain_value=-0.00875 energy=32.61029770806231 stress="-0.017287547655245247 -3.219504421756938e-05 0.000925617398530261 -3.219504421756938e-05 -0.017874691772517062 0.0014392378127042003 0.000925617398530261 0.0014392378127042003 -0.01621936883125399" free_energy=32.61029770806231 pbc="T T T"
W        0.00000000       0.00000000       0.00000000      -1.21079130       0.95889469      -1.54350717
W        1.58810950       1.58810950       1.58810950      -0.39215485      -0.37076743      -0.64363530
W        0.00000000       0.00000000       3.17621899       0.17865527      -1.96896234       1.74998770
W        1.58810950       1.58810950       4.76432849      -1.32896032       0.16255429       0.00284819
W        0.00000000       0.00000000       6.35243799       0.88214439      -0.09218594      -0.02638242
W        1.58810950       1.58810950       7.94054748       0.79470064       0.47747542      -0.20417540
W        0.00000000       0.00000000       9.52865698      -1.10469525       0.41287720      -1.52651289
W        1.58810950       1.58810950      11.11676648       3.34070616      -1.09650050       0.18907885
W        0.00000000       0.00000000      12.70487598       2.45869821      -0.83106575       0.46914896
W        1.58810950       1.58810950      14.29298547       0.20990141       0.27946385      -0.01463509
W        0.00000000       3.17621899       0.00000000       0.49252977      -0.80551029      -1.64946819
W        1.58810950       4.76432849       1.58810950       0.56292305       1.18117170      -0.59566616
W        0.00000000       3.17621899       3.17621899      -2.03803434      -0.27980858       0.47069193
W        1.58810950       4.76432849       4.76432849      -1.76019461       0.44667800      -0.26178138
W        0.00000000       3.17621899       6.35243799       0.84269613       0.90274212       0.22723909
W        1.58810950       4.76432849       7.94054748       0.16891339       0.14974356       1.42500126
W        0.00000000       3.17621899       9.52865698      -2.55604404       0.89116063      -0.53583854
W        1.58810950       4.76432849      11.11676648      -1.60899930      -0.39677083      -1.83317172
W        0.00000000       3.17621899      12.70487598       0.01152936      -0.86915873       1.25018485
W        1.58810950       4.76432849      14.29298547      -0.31770532      -0.65644517      -1.34622597
W        0.00000000       6.35243799       0.00000000       0.00897112      -0.67299656       0.80617079
W        1.58810950       7.94054748       1.58810950      -0.39375020      -2.60449744       0.64889751
W        0.00000000       6.35243799       3.17621899      -0.64475307      -0.31864629      -0.71070524
W        1.58810950       7.94054748       4.76432849      -0.52695807      -0.51992489       0.73212369
W        0.00000000       6.35243799       6.35243799       1.29520847       1.31147865       1.08458103
W        1.58810950       7.94054748       7.94054748      -2.33333075       0.21601771       1.93424496
W        0.00000000       6.35243799       9.52865698       1.28978301       0.04802103      -1.03625459