250
Lattice="15.927550324074248 0.0 0.0 0.0 15.927550324074248 0.0 0.0 0.0 15.927550324074248" Properties=species:S:1:pos:R:3:momenta:R:3:forces:R:3 Temperature=0.0 energy=37.94021477938059 stress="-0.019666841355599676 7.147398359638519e-05 -0.0002597528642270177 7.147398359638519e-05 -0.019992983071918363 -0.0006535504156643326 -0.0002597528642270177 -0.0006535504156643326 -0.020432165695419686" free_energy=37.94021477938059 pbc="T T T"
W        0.02122248       0.06188683       0.23360159      -3.43608631      -4.16832982      -5.45288246       0.09309605      -1.06221468      -2.56041057
W        1.70834868       1.56253345       1.66746718      -0.65433933       3.80867906       8.15307204      -1.06461875       0.14356383      -1.64480133
W       -0.02030260      -0.06223726       3.23292142      -0.32426325      -0.76231830       0.05346676       1.10561920       0.23503632      -0.72998506
W        1.64085987       1.69501743       4.72913915       4.31378063       0.49915936      -0.53317759       0.38922878      -1.08171215       0.33695372
W        0.05337724       0.05265933       6.33201713       5.34874561       0.29874573      -3.47439191      -0.42987652      -1.00151611       0.62034127
W        1.53383094       1.75854370       7.92721325       0.64988907      -2.56462336       0.80279788       1.85107315      -1.96559335       1.43394979
W       -0.04602144       0.08650312       9.56388900      -0.65811682       0.55396502       0.54933232       0.62102225      -0.53876827      -1.20597919
W        1.49521771       1.66522214      11.14535668       3.91497677       1.97378156       4.48844963       2.11724475      -0.70481306      -0.81342756
W        0.00190090      -0.07746809      12.66327175      -0.18376971       5.19726202      -4.42109748      -0.34151583       2.00799330       1.55958567
W        1.58759499       1.66836486      14.32026150       3.21898035      -2.74683865       2.50969043       0.12320428      -1.21109684       0.45281772
W       -0.14277873       3.15756227       0.06005838       2.39340743       4.80462685      -2.40970656       2.05513413       0.57698832      -0.61536967
W        1.56296943       4.91372050       1.45269197      -4.07035812       0.12175343       4.48591380       0.71509203      -1.69304683       1.84252546
W        0.18338371       3.13952864       3.11894564      -6.48982337      -7.53351079      -0.00291346      -2.15217281       1.44182011       0.95409216
W        1.69095609       4.87030088       4.82599946      -1.27578067      -1.91591614      -3.01538735      -0.72064802      -0.80590451      -1.30757046
W        0.11443506       3.06160553       6.40511767       3.68851047       1.48576215       3.96265600      -1.98622811       3.42572782      -0.85731097
W        1.65015330       4.86262095       8.02788068       5.47381693       1.63943557      -1.74514007      -1.41564610      -0.46899810      -1.48607682
W       -0.02427557       3.28503150       9.63601826      -1.61828299      -0.69991008      -4.85885274       0.54166069      -0.55159544      -2.48016582
W        1.59728786       4.81257213      11.14353078      -3.35923893       1.10868915       3.39777603      -0.14165089      -0.39456462      -0.59610833
W        0.01247342       3.14668401      12.60792266      -1.10708945       2.79184028      -3.03826149      -0.95310127       0.24109113       2.02096907
W        1.42761842       4.69096423      14.28743582      -6.74009686       2.79250829      -0.29248557       1.24011892       1.06323900       0.39154589
W       -0.02518053       6.46922274       0.02389498      -2.00420921      -5.30271208      -6.96937831      -0.18007374      -1.57227411      -0.75770874
W        1.80866115       7.86803819       1.49997604      -5.28265538      -2.28066736      -8.46886782      -1.81153562       1.72043338       0.96010403
W       -0.07940431       6.30924178       3.27515381       4.63973101      -0.76122610       5.05026701       1.74631135       0.57920393      -1.70850186
W        1.60830172       7.96728740       4.77563733       1.90178198       0.33459404       1.74827036       0.37375773       0.30686311      -1.34589681
W       -0.04165825       6.37727817       6.33278754      -1.87860028       2.17944352      -1.36156891       0.75885537       0.05482861       0.77225858
W        1.57420707       7.92811694       7.90896849      -9.14397672      -0.31397965      -0.39726148       0.56602051       1.38228950       0.81939385
W       -0.00993861       6.46303298       9.49183323      -0.70671295       3.47081092       1.22736654       0.29770018      -1.32263609      -0.23929367
W        1.71480080       7.88672534      11.12614076      -2.41127024       3.57517438      -5.75116524      -0.93179654       1.57507086      -0.86882875
W       -0.02991799       6.37551617      12.57109740      11.10543087       3.13864490      -8.57876654       0.13462509      -0.13063680       1.94865910
W        1.60982771       7.88442543      14.23896933       0.21260412       3.85678604      -2.73030340      -0.39547881       0.65241826       0.62026907
W        0.03890282       9.49847897      -0.00594639       2.05717532      -4.42415688       2.09466470      -0.89755655       0.18141042      -0.52745901
W        1.59395266      11.11130390       1.51691452      -1.37116006      -4.31982885      -0.09645772      -0.21868363       0.04832583       0.57504206
W        0.19433269       9.55947284       3.07863468      -0.94361016      -5.29409675       4.63332473      -1.19738286      -0.26288182       0.90178858
W        1.66395439      11.19264896       4.83408783      -0.95117221      -5.50361743       4.17653358      -1.67846797       0.64036035      -1.11236095
W        0.14183816       9.60291537       6.29799861      -3.40230162       3.88257032      -0.61790217      -2.45472145      -0.65243443       0.91409129
W        1.40607606      11.17734652       8.08742527      -1.27004753       5.47072117       4.36520778       2.42317918       0.19910194      -1.42682225
W       -0.01488103       9.52065795       9.71159521       7.19852915       5.61671632      -5.59103180      -0.10853507       0.80782278      -3.15406703
W        1.54969211      11.27875936      11.03170595       2.88159782       4.57546170       2.93644932       0.29674342      -1.13779151       2.22718675
W        0.24537565       9.50034798      12.75340422      -3.74225892       3.61049842      -0.33830068      -4.27396110      -0.25693479      -1.18001372
W        1.32165436      11.08931358      14.28681114       3.40883356       0.17969614      -5.30487938       4.07249757       1.42891158       0.62617652
W       -0.16627608      12.64586149      -0.05374070      -8.68581583      -1.25684840       1.88606296       1.51594906       0.96459100       0.42076783
W        1.58262538      14.08906504       1.49810375       3.11272826       0.79001791       9.25600772      -0.10925532       3.25065878       1.38034455
W       -0.11451079      12.72676897       3.08294837      -1.88930094      -1.32432453      -5.93232986       1.41823009      -0.52189972       1.92916260
W        1.57448007      14.41602103       4.79332338      -0.52456292      -2.11753647       1.31949225       0.44427815      -1.24843304      -0.81100601
W        0.00238750      12.67000007       6.40645632       0.32950664      -3.62004463       3.51644055      -0.71906027       1.46398119      -0.78592930
W        1.58306665      14.34351174       7.88183232       3.63133036       8.15604276       4.02704804      -0.79165207       0.86311443       1.95198713
W       -0.13342995      12.75446170       9.49266754       3.36175033       3.12804981       6.72256213       0.52231645       0.76466260       1.12551700
W        1.50190229      14.30446531      11.28388439      -0.67548322       1.93688526      -2.75604499       0.19174666       0.62226376      -2.85343229
W       -0.17058486      12.70398098      12.73522409       4.67008707      -0.50354388       2.71501626       1.12473416       0.18764379      -0.23277930
W        1.51808962      14.34315611      14.30544694       1.44803073      -3.77977269      -0.67954000       0.38449335      -0.21726873       1.08513168
W        3.19413869      -0.04114369       0.03766749       3.81290377      -2.01801592       0.05940440      -0.10487939       0.27181283      -0.84719970
W        4.91270148       1.56479583       1.67320959       3.71023542       2.25055644      -0.72933869      -1.69247514       0.14473422      -1.61941920
W        3.26239912      -0.08525506       3.11971354       4.35806898       3.66723450      -8.59019547      -0.77075038       1.51955638       1.40630763
W        4.77186890       1.67731492       4.67709886       4.04577839       1.16218204      -1.45220518      -0.71977229      -0.11421765       2.09388646
W        3.12768563       0.05000318       6.38384300       2.48307577      -2.46013359      -2.06723005       0.86128309       1.15736371      -0.67620586
W        4.72416403       1.59957174       8.02789018      -0.72490805       6.23843889       1.52550569       0.31713505       1.18729405      -1.81294071
W        3.16590899      -0.02381574       9.54207158      10.92238299      -5.92936988       3.30473975      -1.01574927       1.86044894      -0.05952927
W        4.93664274       1.64272293      11.11994963      -0.29090030      -7.14888820      -3.86227787      -3.31190349       1.42091055       0.57992674
W        3.12233518      -0.05249378      12.59369182      -0.85213374      -8.90757079       1.69800566       0.20724898       1.77553643       2.19992536
W        4.66101073       1.66969761      14.46508533      -1.66063241       5.65896523       1.51285181       0.95327472      -1.08005224      -2.12705564
W        3.21164120       3.22234126       0.00630224      -3.17811774      -1.60299042      -1.27516543      -0.75484631      -0.06888047       0.14941066
W        4.86644478       4.84497172       1.62562365      -1.37347332       0.10716360      -2.92497265      -1.21203923      -0.09561852      -0.77144256
W        3.25131662       3.20037755       3.07046821       1.98689172      -0.35503488       4.73417552       0.13167844       1.08555548       1.51949353
W        4.90017716       4.90081224       4.69091823      -1.67177815       6.14554742       0.00675642      -1.46912359      -0.82142915       0.61625169
W        3.15638633       3.35728391       6.37497322      -2.06309356       0.93552831      -5.11965238       1.21081629      -1.40467763      -0.78679629
W        4.78987620       4.87962595       7.89844632      -4.78042274       2.74177040       6.95218498       0.44517378      -0.30708970      -0.28709433
W        3.32677121       3.36757716       9.47318888       2.21472163       9.31387148      -2.00785646      -1.77622604      -2.52639011       1.62934381
W        4.83689904       4.83719108      11.03038007       0.30324988       3.14177694       5.51737002      -0.38763116      -0.12823386       1.13855225
W        3.16623231       3.31767319      12.76134703      -5.67814105       3.26228063       0.03547633       0.63767703      -2.45530322      -1.12405806
W        4.75014382       4.72632527      14.27729129      -5.55447969       0.89854419       5.88679339       0.41781483       1.29523463       0.35295170
W        3.16500917       6.36941732      -0.14875644      -4.74874808       2.05742744       1.90336237       0.94733295      -0.11186174       0.87617453
W        4.86687331       8.11532143       1.41674027      -1.41576222       6.43589040      -0.46154405      -0.87806946      -1.53355443       0.84753643
W        3.26419133       6.49337364       3.15373367       2.73743386       4.76824250      -3.38312970      -0.30433512      -1.19569857      -0.65248538
W        4.74353669       8.08973214       4.66847973      -2.91017475       2.42007831      -5.02081497       1.37384864      -0.77579261       0.66880440
W        3.22572977       6.48159568       6.28680212      -2.28292015       5.94128289      -5.07714625      -0.14372124      -0.85589094       0.71476342
W        4.87877869       7.94020723       7.90141259       3.59155070       2.09897160      -1.77972448      -2.60556554       1.81628029       0.52905701
W        3.19138309       6.31020182       9.49555138       1.96417144      -0.70095775      -5.41900430       0.51282125       2.69868485       0.42445984
W        4.79562968       8.06432452      11.23069977       4.24288743       4.32334670      -1.05370672      -0.80350257      -0.34772777      -2.28437543
W        3.07944902       6.31927633      12.69363576       0.70577368       1.90393078      -6.31738043       2.09854219       0.67214140       0.06786496
W        4.72873798       8.06103869      14.19736248       1.32208081      -1.06690256      -5.57091334       0.87327663      -0.71125810       0.86462917
W        3.13183773       9.55312452      -0.11499147      -1.43450679       1.36956981       0.48750995       0.87202200       0.53375361       0.04735042
W        4.59996749      11.17415488       1.58856617      -2.92106707       0.38114029      -3.10469414       2.50592267       0.48540185       0.09410599
W        3.30993371       9.71839867       3.26876899       0.52632664       7.13058365       2.87141030      -2.46528680      -1.77581940      -1.81182150
W        4.59932298      11.16277334       5.01668056      -4.37003262      -2.66161046      -5.83692039       2.59721978       0.91834810      -2.91804491
W        3.08548634       9.58318041       6.31279281      -4.59643361      -1.26251652      -3.99069644       1.37953999      -0.13227948       2.80504445
W        4.78678056      11.23846330       8.00580684       6.70236463       0.70136156      -5.48212894      -1.44338602       0.56551053      -0.67202278
W        3.13259551       9.77501505       9.57139909       3.77227685       6.12228620       5.96822296       0.79992841      -2.15321873      -0.99251700
W        4.94278569      11.23263427      11.09462309       6.67109262       5.12743605      -2.10758213      -2.86607893       0.44636725       1.16264186
W        3.18501650       9.67559123      12.60302334      -1.97799826      -6.84722632       0.69299982       0.51766557      -0.45419203       1.61977673
W        4.78435560      11.28714631      14.33363302       6.32731250       2.41818396       3.84716088      -0.83642029      -1.76456728      -0.71437981
W        3.20509952      12.71820929       0.03888247      -4.80407239      -2.39984189       0.48267825      -1.33768116       0.35928274      -1.30731406
W        4.88353973      14.36725964       1.72016169      -5.27990730      -0.42790418       0.85961911      -0.99161416      -0.37859372      -2.02285028
W        3.13590516      12.82482223       3.20666069       2.13536184      -6.25468159       4.77855231       0.39271465      -0.68872482       0.58837501
W        4.84895026      14.53204795       4.80379630       0.11650321       1.88794438      -0.27197994      -0.93968939      -1.57265838      -0.63514760
W        3.14503071      12.84442522       6.45615611      -2.43278578       7.66144072       3.77968615       0.11031072      -0.45999520      -0.47150275
W        4.79532181      14.51839709       7.85133301       0.28166410      -2.46702993       1.24399862      -0.45666157      -1.56210562       1.14600896
W        3.15501493      12.96808627       9.66446677       4.75319720     -12.66699419      -2.08829240      -0.07043717      -2.14111471      -1.97508259
W        4.74388164      14.42886691      11.05640972       0.54943333      -1.09044818      -0.41537087      -0.21578080      -0.63213626       1.63755030
W        3.09309699      12.72146501      12.82461133       1.39708456       2.69352555      -3.89075848       0.45231276       0.56568858      -1.15651038
W        4.66170570      14.29565345      14.21093360      -1.64651460      -4.35313077      -3.97805892       1.13597729       1.76454588       1.81727134
W        6.43638520       0.07243227      -0.11789235       7.88513729       5.37461614       1.00568488      -0.72881501      -1.11361102       1.21598331
W        8.03695153       1.56621205       1.49110184      -3.46764855       2.17656684       1.90642665       0.22237200       0.00800108       0.43677787
W        6.50848014       0.14983385       3.18597715      -6.45359913       2.80366953       0.82444664      -0.89313002      -2.93532667       0.02109747
W        7.82903005       1.69999254       4.95482914      -1.74147225      -0.53061459      -1.54173585       3.29704058      -1.13288107      -2.01527777
W        6.42866907       0.19668565       6.35203913      -5.56176999     -10.47081524      -0.97647643      -1.09734782      -1.60718907       1.08880079
W        8.07613056       1.70922173       7.96533431      -0.80532204       1.74450139       4.99188540      -0.67342228      -0.64437089       0.22351002
W        6.25289090       0.09036764       9.61542268      -6.39189740      -7.59978845      -4.29471613       2.63070025       0.27901615      -1.82192351
W        8.01626763       1.84758054      11.14508931      -3.72952937       0.33393043      -1.43520183      -0.14485671      -2.83180966      -1.14770856
W        6.23496418       0.12395034      12.67092245       2.38621410       1.22659694       3.29799136       1.61012456      -1.12607179       0.85195788
W        7.88280013       1.60235874      14.11695228      -2.28148412       0.45655667      -5.99514559       1.30967072       0.58613692       2.90123712
W        6.32559762       3.13901533       0.15108852      -1.10718487       0.85874453       4.84048992       1.25349143       1.07821078      -2.75788356
W        7.92293432       4.80627802       1.58077165       0.96853941      -4.34446407      -5.66138032       0.83853697      -0.23778173      -0.07252256
W        6.47546736       3.03011326       3.19507969       1.56604091      -0.38709348       3.18029861      -1.13622250       3.49384072       0.12246265
W        7.93335296       4.78156639       4.77993739      -6.33111579       2.16920791      -0.53352741       1.09225145       0.38605979      -0.55657686
W        6.30218158       3.30619385       6.43873404      -0.43711595       0.80778979      -2.41682151       0.95106317      -0.07459712      -1.14363192
W        8.04976986       4.99068672       7.95715115      -1.47895817      -1.24921784       1.91379690      -0.60766905      -1.49788817      -0.72813079
W        6.46361121       3.18675942       9.38872942      -0.94008706       0.94946868       2.84815164      -0.36348518       1.36611684       1.62137845
W        7.96557102       4.81092076      11.02058315       3.42713350       0.01563026       4.02085158       0.08804493       0.83944059       0.47358707
W        6.50586812       3.26230159      12.69806615      -2.62866845       0.01302403      -4.38304671      -2.68251835      -0.04323449       0.17632591
W        7.99109331       4.82085900      14.26307538      -0.29154656       0.08324532       3.75331676      -0.58775738      -0.26959941       0.24596814
W        6.35859757       6.29610007      -0.02184295       2.31176752       3.38379375      -0.35882438      -0.21473271       1.17907430      -0.81750906
W        8.06182208       8.04773422       1.32389155       7.40226487       6.55696321       3.12617789      -2.17230310      -0.88313840       3.74285698
W        6.40133350       6.51029950       3.19946221       4.13916838       2.61616121      -0.03821607       0.33616413      -1.33458741      -2.02089575
W        8.03265517       7.93795320       4.53481879       5.11660632       0.91222722      -1.23957922      -0.62065924       1.76418404       2.48668846
W        6.45006890       6.48961968       6.27134022      -1.86483805       1.09851775      -1.06230090      -0.49267625      -0.78484182       0.43997331
W        7.98599230       7.99088125       7.91178430       0.42371221      -6.80615785      -1.47954742       0.15709890       1.53864328       0.05368413
W        6.30655388       6.45737546       9.48316553       3.09373089       0.28136485      -4.97212878       1.28953372      -0.10471092       0.23992225
W        7.83923721       8.07735127      11.09982523      -2.05248392      -8.26822790       5.27943445       1.05573629      -0.44857828      -0.95047558
W        6.31940864       6.41964215      12.62372143      -0.95184819      -7.68727275       0.38315251       0.05818983      -0.46455751       1.36185792
W        8.01143719       7.85793512      14.38928260       2.88260139       1.62603622       3.17224223      -2.05102983       1.93723888      -1.71749352
W        6.38693182       9.68442081      -0.05740281      -0.57373189       3.34071428       5.92487034      -1.08604995      -1.51966456      -0.29673057
W        7.89919475      11.16753475       1.62191055       1.20849590       4.21396071       3.28306898       0.13545656      -0.35288576       0.13959586
W        6.32683388       9.63148833       3.01723506       0.20793436      -1.72490184      -1.15614739       0.52236687      -0.36897191       1.94138971
W        7.94415913      11.11276362       4.96995990      -1.28777085      -2.18015995      -3.62740763      -0.58958941      -0.37570482      -2.66218868
W        6.32464607       9.46860348       6.36116512      -2.69755902       2.31690771       4.66920535       0.91817889       1.88057171      -0.16930052
W        7.91727651      11.39615697       7.83711208       3.64616842      -5.23399799       0.13200586       0.50176112      -1.60941330       1.08884280
W        6.20916353       9.72531801       9.44199776       0.19041805      -2.12159863      -2.29937136       2.87509403      -1.45155377       0.45330390
W        7.93830823      11.40765629      11.00539124      -2.27703118      -5.19877030      -5.04033765      -0.01272431      -2.94473653       1.64325051
W        6.51170880       9.55726822      12.68131117      -1.23751213       3.25729771      -4.40100654      -2.59788389       1.45961458       0.82513732
W        7.80938959      11.29958768      14.54306146       5.27240540       5.05868841       5.93675560       2.36058057      -1.32101658      -3.23066750
W        6.32843448      12.80118843       0.06738813       3.22832166      -0.49133539       0.68245362      -0.02654241       0.76899873      -0.38998746
W        8.01814290      14.24233650       1.56110858      -1.52354615       0.74490392      -3.26855780      -1.34982401       2.17390222       0.97218710
W        6.23526836      12.59747222       3.22374232       3.66502678       6.38016088       1.46590222       0.99527148       1.64909557       0.42907165
W        7.96351377      14.26487900       4.82287318       4.05200856      -4.11650363       4.83342638      -0.21764429       2.37602010      -1.15082917
W        6.35175144      12.88155001       6.22966073      -4.45966461      -5.19600700       0.59115836      -0.03064454      -0.51310545       3.09417928
W        7.93946446      14.41602413       7.93894345       1.35573500       1.13243903      -4.83937866       0.64467786       0.89984633       0.34780098
W        6.36396875      12.87165374       9.56609640       1.85974683       0.90844933       1.11098119      -0.29451461       0.45705947      -1.68328679
W        7.89610808      14.45156926      11.06951235      -0.74523125     -12.00406854      -9.24831777       1.02659967       0.10591172       1.48994750
W        6.35954502      12.81478672      12.74887703      -2.18460380      -4.83134591      -2.43101164       0.11594482       0.57326371       0.12075702
W        7.96980327      14.41592871      14.39504528      -4.73656380       3.12884452      -3.27859984      -0.34244445      -0.39215254      -1.91132444
W        9.68712188      -0.02992352      -0.03688740      -0.84844781      -4.42596567      -0.68279203      -1.89869337       0.70640877       0.25431933
W       11.21109787       1.66192669       1.56327055      -0.43937463       3.26187609      -6.74256593      -0.81223171      -0.96353089       0.62670120
W        9.50627369       0.03653227       3.27267773       1.89983983       3.06781153     -11.87745819       0.77361326      -0.44513062      -0.93796604
W       11.26161919       1.55914472       4.91634773       4.58899901      -1.57026899       2.12944202      -1.47610669       1.07293081      -3.43699634
W        9.67487149       0.04862248       6.40912858      -3.07328229       1.23265771      -3.44911250      -1.36562703       0.32862397      -0.09276951
W       11.17313962       1.81894294       7.79825189       0.63946694      -5.63451967      -3.07351505       0.01248846      -2.29662452       3.07965797
W        9.57701134       0.05079973       9.55605125       0.90540428      -3.66760348       4.25647643      -0.98187535       0.42403035      -0.53186766
W       11.06004387       1.57345280      11.17544825       1.20934136      -4.39583113      -4.81463073       1.23062605       1.10281613      -0.37576465
W        9.51594336       0.05770628      12.65119318      -3.71681691       2.38285566      -0.67126201      -0.27559804      -0.90919054       1.16856162
W       11.07582275       1.59902986      14.46888311       0.74447217       7.47177076      -9.48372378       1.28688759      -0.45131823      -3.26554736
W        9.57712887       3.31880511      -0.09316476       3.98225669       5.26781493      -7.32384659      -0.81168657      -1.46870609       0.55161527
W       11.02106750       4.84357663       1.52742285      -0.29963080       3.20268630       1.40392848       2.16458431      -0.81446544       0.69213523
W        9.52115067       3.01486634       3.15214994       0.88681042      -0.83199763       2.79337919       0.89444739       2.65041033       0.24757869
W       11.11569653       4.84021798       4.77400712      -8.96645375       2.97308569       0.20297857       0.63637071      -0.38742105      -0.94326897
W        9.63504888       3.26658859       6.32588275       0.29648007      -4.54613945      10.16545840      -1.62567382       0.94015588       0.25027832
W       11.10823643       4.97691916       7.85051052      -0.10165115      -2.74217998      -2.34608650       1.53410263      -0.46709983       1.07177860
W        9.69771070       3.33367555       9.47036785      -4.38777156       1.22256588       5.13148453      -1.49075125      -0.71691212       0.15784708
W       11.28694892       4.65708368      11.08195808      -6.64048764      -2.45594667      -4.88535138      -0.92485914       3.09773668       0.84375645
W        9.57133089       3.29625877      12.66253989      -0.20208485      -0.83732862       3.50270692       0.88469830      -0.22061297       0.94629573
W       11.22282000       4.87118795      14.31804127      -0.35469274       0.32555031       0.00941172      -0.91277461      -0.09722001      -1.34874865
W        9.58672182       6.47945739      -0.00730720       0.84136092       2.68018046       6.80738499      -0.51940740      -2.26343480      -1.60690151
W       11.11407051       7.94604062       1.54129223       1.18535095      -3.96453457      -2.76847956       1.27302157       1.96657438       0.47992989
W        9.59405080       6.35326126       3.06312838       7.99880591      -5.48301138       1.62185053      -1.11000403      -0.20875536       1.51162228
W       11.15068634       8.03878587       4.72410442       3.97680299       3.19367312       0.46323979       0.51431344       0.82516832      -0.38306592
W        9.57120732       6.52244961       6.35394198       5.68648765      -1.31470027       4.76065172       0.11436838      -0.66905621      -0.68809781
W       11.20703236       8.10166847       7.92265682      -4.54449978       5.44841349       2.07276238      -0.85262097       0.13648886       0.26095372
W        9.58018211       6.43441754       9.65114138      -2.79548410       3.87834988      -5.34634883       0.32621440       0.79990115      -2.36314703
W       11.04562129       8.06652665      11.13303581      -5.14183166       1.72633951      -1.42497289       1.06680222      -1.24035929      -0.54392971
W        9.39754182       6.46365255      12.54221461      -6.73671624       0.07813348       2.17961867       2.45393784      -1.11119492       2.08421575
W       11.06923150       8.04595204      14.24606170       3.14462249       2.46705000       0.18919248       0.43498216      -0.59744210      -0.02285432
W        9.53179639       9.53229836      -0.02499565       0.16005108       0.26199678       5.97229545       0.78069814       2.08958638      -0.83210347
W       11.07707387      11.28783075       1.55879020       1.77541791      10.09439773       2.75740880      -0.08361703      -3.08705270       0.03673383
W        9.52716683       9.51022634       3.13257954       2.35104452       1.55395745      -6.23658458       0.56446953       1.52245261       0.00258974
W       11.06030875      11.22183379       4.73829171       2.00659795      -1.64836672       1.53582996       0.77796320      -0.02275497       0.27434549
W        9.70620478       9.70996640       6.39521402       4.28026430      -1.57993164       0.19276053      -2.17803807      -1.07051976      -0.23728025
W       11.16523574      11.29161678       8.06145921      -6.40904464      -0.76051208       0.49970807      -0.92591775      -0.67644514      -1.42349153
W        9.43322971       9.74067927       9.49149719       6.18879604       1.74274617       7.27252877       0.41093214      -1.64505627       0.00050637
W       11.08596275      10.97899152      11.20029417      -1.27230215      -0.16338891      -1.55529227      -0.20997880       3.03670201      -0.70235041
W        9.36366882       9.53006243      12.70559420       0.80770732      -5.04514621       2.18492389       1.38412346       1.12879452       0.43140075