250
Lattice="15.927550324074248 0.0 0.0 0.0 15.927550324074248 0.0 0.0 0.0 15.927550324074248" Properties=species:S:1:pos:R:3:momenta:R:3:forces:R:3 Temperature=0.0 energy=35.09090926497668 stress="-0.01933114207188864 -0.0001906187319161048 0.0010415890693740066 -0.0001906187319161048 -0.019296149042850475 0.00015019165765369603 0.0010415890693740066 0.00015019165765369603 -0.018740508463952123" free_energy=35.09090926497668 pbc="T T T"
W       -0.15440454      -0.04463530       0.28497781      -1.16459720       8.90273095       1.45716439       1.36833659      -0.48484132      -1.48973311
W        1.36696162       1.62970719       1.73146280      -7.59241308       5.17028284       0.61032233       2.33396963      -1.32807948       0.86124178
W       -0.22612155      -0.02133724       3.30805325      -5.75321146      -3.91342510       2.41167296       2.01064270      -0.21420779      -0.32001531
W        1.46620655       1.34021492       4.93550062      -2.15826893       7.39511013       5.13710307       0.44709947       2.75312275      -1.09342412
W       -0.09215788      -0.13108790       6.46088827       6.68773699      -0.34632475      -4.35036294      -0.02875737       1.77290716       1.52992309
W        1.60096026       1.59850415       8.15842273      -1.43205544      -3.51664649      -0.73811979      -1.11465539      -1.06015252      -0.74793665
W       -0.01484199       0.03122879       9.71802365       3.59192769       4.24468122       3.07552889      -0.84215280      -0.38088151      -0.52265047
W        1.63481571       1.64265815      11.22098004       3.12570004      -2.05253569       0.31878538      -0.83955758      -1.95960579       2.38258294
W       -0.12839354       0.03595564      13.03716074      -1.94961666       1.29432301       3.37046197       1.51347809      -1.01635822      -2.16555199
W        1.46586260       1.47319710      14.41686857       1.45002656       1.65508941       4.05610806       0.77271354       1.41015196       0.57266915
W       -0.11460602       3.07630940       0.22100228      -8.60762933       2.97524875       4.44130433       0.86082766       2.67172820      -0.77307327
W        1.55484979       4.78446596       1.75506811      -1.57540378       2.51498746      -3.81015875      -0.35844545      -1.31518016      -0.58805624
W       -0.17871261       3.20612752       3.42363999       1.01816393      -6.77324567       5.03991279       0.93735903      -0.26198140      -1.21921634
W        1.48438538       4.60588576       4.86183803      -5.90675202       5.08072360       3.00748094       0.60435668       1.73033351       0.84295370
W       -0.02516307       3.06728969       6.50408536      -0.38696942       0.34447414      -0.53416394      -0.89948807       1.06803937       0.39338246
W        1.48707408       4.71849758       8.01215558       4.55192202      -3.60483039       1.69098460       1.97548966      -0.12562371      -0.58120848
W        0.11511506       3.21087824       9.86578978       0.98138716       2.84038249      -1.85955674      -2.46094739      -0.45555853      -2.76442740
W        1.61013766       4.67243632      11.24855554      -2.59737542      -4.58246702      -4.47440156      -0.08711182       2.13995533       1.45502370
W       -0.29323398       3.15280384      12.87083811      -5.22441265       0.39019485       1.35090344       2.64461311       0.44177643       0.18092509
W        1.42294508       4.82375023      14.42254766      -3.59311656       2.47817089      -5.52286143       1.48141635      -2.49959007      -0.10323914
W        0.10135452       6.36601323       0.07560062      -3.50232193      -1.20011145      -5.23014754      -2.99838523      -0.73705310       1.86707188
W        1.46423718       7.80518396       1.69643981      -0.91313689       1.58962811      -7.37947541       1.80842716       2.36464162      -0.01547265
W       -0.05124654       6.38838486       3.44647857      -4.85163211       0.45962650       2.51064590      -0.58988721      -0.62175243      -2.57572387
W        1.51288503       7.90452819       4.94613257      -1.84748117       0.46745118      -0.91273168       1.17452798       0.88489749      -0.69298115
W       -0.08798772       6.32933015       6.46206706      -3.90543148      -5.17567319       5.87873535       0.93460955       0.18644320      -0.26022014
W        1.46635413       8.01603722       8.04223736      -5.29817795      -4.57127314       2.02217221       2.41363942      -0.80186256      -1.36066397
W        0.20606962       6.28836850       9.48718632      -0.71805261      -1.10663080       1.38257345      -3.84863746      -0.24680406       2.92365181
W        1.57010020       7.96697150      11.17161287      -5.10603002       3.16167868      -0.98459095       0.39183062      -1.28813222       0.68202347
W       -0.08629749       6.36912900      12.96156151       3.85034438       4.85163827       3.32609099       0.68074743      -1.18046252      -3.79877081
W        1.58646655       7.87840145      14.25314602      -5.58235254      -5.45861582      -0.50356722       0.34232137       1.87136871       2.85711504
W       -0.04699753       9.47350904       0.13079954      -3.82321990       5.44109578      -1.81003955       0.38002740       0.45439742       0.07678387
W        1.49043972      11.12456973       1.74216964       2.30438645      -4.73542735      -2.75486699       0.60394895      -1.71573221      -0.82420118
W       -0.11468931       9.50161202       3.38172645      -4.19668517      -3.52694949       2.54776852       1.64839493       1.31166375      -1.90795383
W        1.47126382      11.15107279       4.96930682      -2.07060717      -0.43929593      -6.30541124       0.58775038      -0.33855355      -0.10106538
W       -0.16544600       9.65876562       6.50354418      -4.85022263      -2.60513410      12.22562758       1.89937417      -0.50025730      -0.37665184
W        1.50874030      11.19343932       8.19969167      -1.60946218       1.81286408      -2.12977693       0.56239626      -1.25380529      -2.33881479
W       -0.06572772       9.35269237       9.63207537      -0.60035726      -0.64571074       0.33850110      -0.10542806       3.20420926       0.82969710
W        1.59750578      11.00913271      11.19877482      -0.77324730       4.17416465       5.42252923      -0.84502224       0.89531009       0.71966675
W       -0.00824011       9.52661613      12.89227566       2.25595262      -0.96593274       4.16477307      -0.47256066       0.76127747      -1.50505774
W        1.54856971      11.16916819      14.45993660       2.24927361       2.25535350      -0.72503020       0.59570771      -1.66361388      -0.48383660
W       -0.09931964      12.57599516       0.04745220       0.87779577       1.07179537       3.94904887      -0.28504158       2.28121879       1.01116603
W        1.48483611      14.17167330       1.62728873       2.03694437      -1.53796605      -1.20553534       0.62680872       2.42531077       1.22353572
W       -0.04885518      12.73185326       3.17063715      -3.80091535      -0.59172688       2.68969722      -0.64428794      -0.08943951       1.53670078
W        1.43801642      14.33705114       4.87357240      -1.61250054      -1.53056740       1.56783541       1.42641610      -0.83443891      -0.21161543
W       -0.10123852      12.86543016       6.49093987      -2.99651674       2.04462154       2.09014277       0.69022024      -2.04519193      -0.08477789
W        1.55128326      14.28461078       8.15033881      -2.50019812       0.15144586      -3.93938850      -0.19475949       1.02607455      -0.99071399
W        0.02553234      12.70134455       9.63434420      -2.64062583       0.07752179       7.99628737      -1.50384909      -0.06256483       1.10187630
W        1.49968267      14.22898015      11.25638436       6.43785559       0.30305693      -1.38702146       0.40232187       1.40047346       0.72456041
W        0.06673217      12.73900606      12.90339614      -7.05873524       6.86213978       4.06648710      -1.75279607      -0.53553741      -0.81101912
W        1.53602972      14.30410264      14.50908792      -1.95464797      -5.21685115       1.06694490      -0.35808955       0.40375718      -0.82599716
W        3.15320450       0.03688414      -0.02552105       3.98963066      -8.35847610       2.12096210      -0.79812837      -1.33257559       2.68422585
W        4.86907049       1.56652879       1.73636236       7.38324658       3.70747324      -3.00893090      -3.00476521      -0.44438159       0.16985545
W        3.19030581      -0.02450324       3.27150544       0.79558320      -2.54081195       1.30742576      -1.85357488      -0.21042480      -0.09406099
W        4.73656691       1.53066311       4.92005808      -0.62397071      -1.24887675      -2.33443179       0.09731227       0.67269089       0.03587342
W        3.05137398      -0.03201450       6.46493836      -0.12301765       0.47831642      -8.60677057       1.18809403      -0.73038284       1.07416136
W        4.69049063       1.57232963       8.12641298      -0.18381689       0.18377921      -7.68212749       0.49210402      -0.35348109      -0.51864302
W        3.03444198      -0.06157053       9.73983181       0.35262575      -2.32108168      -1.03377742       2.11222246       0.40382267      -1.42982410
W        4.85983916       1.47620241      11.18098746       1.78393196      -2.64439595       2.71324469      -1.25639170       0.41200634       1.17544757
W        3.18772724      -0.20597038      12.81946357       1.11072847      -1.50362151       6.09094111      -0.87766185       2.07320399      -0.02556860
W        4.75266842       1.43703499      14.36844269      -6.50007160      -5.94449487       5.88284254      -0.16798887       0.46653118       0.84837950
W        3.13378465       2.98599906       0.08315332       1.22616510       3.95352011      -8.95239103      -1.23312720       1.91930281       0.85386957
W        4.73562091       4.64097595       1.67953227      -4.49682877       3.90351463      -3.18287447      -0.44153293       1.01568400       0.19820213
W        3.16496702       3.22518758       3.43211985       2.46398212       2.01021883      -1.65546370      -0.46789334      -1.60536006      -2.25511723
W        4.70198700       4.88978411       4.91051725       5.58556274       0.88292436      -0.45840192       0.59394559      -3.27881390      -0.87376745
W        3.02301200       3.00046225       6.41154248      -1.70786718      -1.08946051       1.29016534       1.81587135       1.71695736       1.13244547
W        4.74959098       4.76776987       7.94840749      -1.77791606       3.01423146      -3.16643795      -0.69457791      -1.26030930       0.99586803
W        3.18607614       3.26960651       9.74438579      -5.40130180      -3.78222491       2.44230952       0.63176942      -1.54512676      -1.13875849
W        4.78207842       4.72372648      11.35234012      -0.64542376       0.29695564       2.63601367      -0.69955375       0.43698993      -1.29725924
W        3.18113097       3.01366269      12.94692098      -2.59064534      -1.17956179       2.72321573      -0.93618026       1.20166814      -1.66952131
W        4.62539965       4.62499624      14.48032668       3.44708396      -5.71220532      -6.38315138       1.10612557       0.83893896      -1.05173756
W        3.06312674       6.32672245      -0.11795459       1.78189216      -0.60949164       1.86093769       1.70422301      -0.35580128       2.89465273
W        4.75039611       7.86422288       1.62121725      -0.87826013       7.28388367       0.42593531      -0.79269748       0.27770545      -0.06314252
W        3.13858306       6.31406926       3.21765276       0.70096573      -3.10752641       5.59771257       0.12813943       0.85768982       0.31192326
W        4.91588818       7.94008236       4.88149077       9.41024153       3.19297936       8.08474272      -3.29214253      -0.44038332      -0.73940474
W        3.14854804       6.33131635       6.37077765       6.12025540      -0.39323335       4.12592950      -0.69967543       0.24522519       0.57431350
W        4.89287420       7.89579629       7.82778681       1.72804315       1.90246516      -1.76150934      -1.66924398       0.07805985       2.57141313
W        3.11700837       6.35141833       9.36944854      -3.82453721      -0.79202173       0.82920786       1.17252381      -0.05982505       2.65959406
W        4.69925027       7.99432034      11.24037589       0.92980226       3.54093536       1.56105302       0.94043437      -2.09732492      -1.36533178
W        3.21716819       6.39224253      12.82410735       0.85701610      -1.95726691       9.61872733      -0.75372394      -1.35177559      -1.32916311
W        4.79412497       7.94640699      14.31247030      -8.93268181       7.96363153      -2.03791646       0.22720649      -0.72979841       1.53566757
W        3.27873152       9.57335676       0.05933912      -3.05972974      -3.01888351      -5.86839838      -1.95071761      -0.79516138       0.41440416
W        4.69601770      11.23863811       1.59972230      -2.21416872       0.99837752       4.40169016      -0.13581626      -1.69398847       0.10783364
W        3.11862367       9.54034046       3.27928505       3.06103591       8.58681948       8.74902229      -0.57026186      -1.19979062      -0.15902835
W        4.69535782      11.04390649       4.84510456       9.36886953       0.69875902      -0.11150654      -0.48300658       2.49360837       0.62198507
W        3.27785709       9.57425151       6.51273133       1.22795474       0.82494231       7.90872704      -2.46725857      -0.72128278      -1.53571758
W        4.83889458      11.04549538       7.88669753       0.26804956       0.69231806      -0.21031607      -1.60133745       1.09747787       2.15684664
W        3.15026407       9.44846347       9.59921774       2.23745542      -6.33523171       5.73256702      -0.08637495       0.88688783      -0.03751259
W        4.66036517      11.04831494      11.05333984      -1.42167028      -0.98639399       4.13826641       1.35852268       1.05665620       1.52424887
W        3.22989534       9.52576250      12.92665553      -2.30436870      -1.66787465      -4.27081859      -1.12901275       0.62709332      -2.42891464
W        4.84276413      11.16586037      14.22545233       1.51413078       5.74381580       6.09413033      -1.22863227       0.00556577       1.89396638
W        3.04600053      12.74340526       0.05962689      -4.19367861       0.10429938       6.66431121       1.21462687      -0.66272174       0.44764914
W        4.66097308      14.22011999       1.87840259       4.99493331       0.23609605      -4.26019516      -0.16226839       0.95725814      -2.41860619
W        3.01923395      12.55954699       3.36561694      -2.65787757       0.15298516      -0.75278802       0.84651471       2.33469014      -0.27351150
W        4.75837339      14.43544892       4.86778855      -0.55633097       1.93989240      -2.38354342      -1.42656644      -2.31460593       0.50176033
W        3.09605859      12.75771454       6.59900545       3.16228437      -0.23271691       2.61805857       0.19966784      -0.52783685      -2.33854337
W        4.83743559      14.16139830       7.99426096       1.43749768      -1.33500551       0.37100684      -2.18446145       2.36782460       0.70600820
W        3.16516573      12.72684770       9.62136358      -5.90903044      -4.24960306      -2.42745609      -0.01441345      -1.12169644       0.22580594
W        4.71613083      14.27354314      11.16423728       3.69459574      -7.82968523      -1.54668734       0.44518935      -0.49155984       1.22136209
W        3.06984184      12.75359208      12.77437679      -0.47120024      -2.43218371       5.20753938       1.31590669      -1.41775445       0.02510420
W        4.73277431      14.20130609      14.48969631       2.98493819       5.47782012      -5.45393900       0.06639980       1.55284427      -0.93987169
W        6.25011575      -0.08502226       0.20205089       3.00744194       5.92362516       6.51219908       0.98029893       0.14740854      -0.80870500
W        7.83173319       1.63003564       1.78836121      -2.68926199      -3.84240898       1.44059782       1.41011271      -1.00418857      -1.89282566
W        6.32009404      -0.06310369       3.32026252       0.41508532       2.14990917       3.35293206      -0.05679886       0.57138890       0.43468146
W        8.11404052       1.47608273       4.94373981      -2.89094727       3.62101456      -3.71440134      -3.08440127       1.64653114       0.22419890
W        6.31285875       0.01926590       6.56341255       0.80095186      -7.98614910      -3.82642998       0.19305055       0.01036360      -0.74352621
W        8.02562721       1.56669544       8.11826274      -1.80679508       2.12162902      -0.27327676      -1.90272793       0.56112621      -0.48191499
W        6.29633400      -0.19951373       9.62750564       2.08537602      -4.69331922       1.02549575       0.71373958       2.56466001       0.74037571
W        7.89301113       1.63328982      11.12644961      -4.51507524       9.27561531      -0.93587499      -0.01916630      -0.97846587       2.27760404
W        6.33208594      -0.11359187      12.96175979       1.06714303      -1.47604142       1.47626872       0.59679109       0.79072488      -1.75432486
W        7.92190541       1.62352016      14.50752027      -7.80796381      -1.85121686      -0.41793832      -0.48467664      -0.59437220      -0.91358337
W        6.21083111       3.08973397       0.07026362       0.14913781       0.61671407       3.30244105       1.82943298       0.46992687       0.48783857
W        7.92392397       4.80877237       1.49545045      -0.39250664      -5.70489201       2.37480950       0.08186640      -1.46285664       2.83377298
W        6.45112349       3.09060047       3.38339694      -1.77839249       0.52915373      -0.89318856      -1.59169136       1.12244150      -0.49477332
W        8.04871528       4.75728053       4.82461535       3.79426739       2.12597337       3.15255321      -1.65212339      -0.97802308       0.16337709
W        6.33114119       3.10933443       6.48522628       2.27460320       4.52965128       5.21618580      -0.06259120      -0.01350562      -0.30994992
W        7.86355395       4.75639088       8.04542721      -3.11413810       5.75424645       0.96766075       1.40509103      -0.36218684       0.02611084
W        6.41259874       3.14088390       9.63487459      -1.91429417       0.74791711      -0.43002622      -1.88475215      -0.01695265      -0.15616944
W        7.89406938       4.82505630      11.23504499       3.54984778      -3.66767728       5.97020533       0.78585592      -1.61396726       0.11937806
W        6.32500545       3.17388952      12.83542974       1.01967457      -6.59824721       3.52219699       0.47691668      -1.13760729       0.07813326
W        7.91632500       4.83277410      14.40797991      -1.65548844       3.09419974      -1.03054784       0.69662355      -2.32091283      -0.47731834
W        6.41664956       6.17052346      -0.01560885       0.78630400      -4.78397505       4.02110510      -2.28712292       2.98797550       1.31492965
W        7.70032573       8.04387894       1.77786362       1.74900496      -2.02205913       3.30116151       1.68813163      -1.14483681      -1.49125813
W        6.35901480       6.26053675       3.30864087       1.01542113       7.38429274       2.56189546      -0.87157420       0.73422350      -1.42370324
W        7.85903563       7.91069406       4.79012646       2.28217184       0.49461510       2.68776401       1.67361512       0.50053027       0.93708483
W        6.37654846       6.20861502       6.42989133      -2.86403539       6.46852026      -1.17371268       0.81979298       2.14962229       0.11123429
W        8.03658351       7.87892206       8.05238851       0.90983244       2.45133763       3.44259951      -1.04682454       0.51112500      -0.50014907
W        6.31240871       6.23350602       9.66494033       0.93633462      -5.26126026       2.30679814       0.28064150       1.93903895      -0.35121031
W        8.01904895       7.89622691      11.19388989      -2.69134271      -1.98090172       9.18755772      -1.05561615       0.39566561       0.10236754
W        6.46246746       6.24137965      12.86218815       1.83333034      -4.41393302       6.23996163      -1.84698888       2.05756102      -1.00739645
W        8.03316700       7.91874550      14.41852952       2.01495941       2.56346785      11.15489710      -1.55484949       0.19160037       0.09861241
W        6.26306808       9.59620619       0.00708451       2.27867705       6.05136514       0.28177576       0.58617361      -1.02875850       0.54279747
W        7.91606994      11.06792540       1.60717791      -0.79155518       0.34355763       7.10796642      -0.64225886       1.76196746       0.42341527
W        6.09342825       9.64086289       3.36007106      -1.35386231      -2.05221503      -0.33089441       3.20710297      -1.44364797      -2.38727914
W        8.05089858      11.16236743       4.75358676      -1.37992142      -4.10203505       1.48633478      -1.96226293       0.80096108       1.28284760
W        6.41703609       9.57206427       6.39992985      -2.49780341       2.55718969       0.07273720       0.27794158      -0.75931965      -0.01601179
W        7.82780318      11.20812766       8.04069609      -0.25639621      -5.39422141      -4.22989005       1.81023244      -0.31450631      -0.60845744
W        6.23960599       9.46387026       9.53254849      -0.26670217       2.28900433      -1.40951031       2.04071115      -0.01056891       0.88915651
W        7.96841889      11.13920467      11.21725341       1.97361415       1.89963196       0.42675061      -1.55526909      -0.33387205      -0.49545880
W        6.31439258       9.48054922      12.71219604       0.05955675      -1.82085622       7.66974087       0.99063121       0.28255616       0.26966596
W        7.93364075      11.00037804      14.33714620       6.34805697       4.36024644       1.09974159      -0.52065438       2.00241291       0.86457476
W        6.29935727      12.80999699       0.00501170      -6.39930502      -1.37438430       4.59402448       1.07620320      -1.70910640       1.19213766
W        7.84891611      14.31953025       1.77801184      -2.77876879       1.83965645       5.21536455       0.05670366      -0.89153729      -1.55619886
W        6.27146796      12.65461800       3.27599461      -4.60304197       6.97808949      -2.45251176       0.89172006       0.91400907       0.08779567
W        7.86490400      14.44800692       4.91355358       2.32711644      -0.93977489      -2.40779389       0.80817048      -2.22782429      -0.05606178
W        6.32468874      12.79574671       6.38421002      -2.67700832       1.48967012      -2.72652527       0.74258847      -0.75770366       0.07408912
W        7.92087000      14.39063743       8.11341863       1.71076848       2.68690054      -3.94541976       0.47802445      -1.70581899      -0.53567626
W        6.32132688      12.69562411       9.58434496      -2.81284394       1.89041850      -2.83352075       0.44621032      -0.55094958       0.81521469
W        7.97780613      14.30990819      11.29206750       3.28672710      -2.97366763      -4.13182064      -0.61970708       0.22644873      -0.36252590
W        6.37527625      12.77570866      12.78398272       6.94451609      -2.14936362       4.25352642      -0.04922130      -1.29557784      -0.53662032
W        8.16839514      14.32911191      14.44599404       4.46823957       2.50135077       3.44746592      -4.49823136      -0.36244581       0.50566389
W        9.45948704       0.02040869       0.18757217      -8.13498005      -7.64172760      -2.56627484       0.09380185       0.19221268      -0.93959458
W       11.14549222       1.49503263       1.78508329       0.76767338       0.10365176       7.53745379      -1.69686636       1.08537542      -2.10522014
W        9.36941585      -0.06656469       3.25178117      -2.26816243       3.81287152       3.67654856       2.30762206       0.03673032       1.10366228
W       11.04074254       1.52211270       4.92865189      -0.26242754      -4.22707724      -0.88537275       0.53508083       1.12828583       0.42689514
W        9.55456167       0.03212895       6.66504415      -5.16562105      -0.40457414       1.89005634      -0.15579488      -0.71369279      -2.84992173
W       11.05708654       1.58310857       8.09984660      -4.28559821      -1.38191857      -0.28722141       1.33840084       0.76621254      -0.08141363
W        9.57368770       0.01270938       9.68384854       1.40647574      -1.80647030      -2.24458653      -1.15985913      -0.52252875       0.51060832
W       11.07498739       1.51757077      11.33888543      -5.04266571      -6.40956049      -4.30595229       0.36313962       0.99950755      -1.52628327
W        9.45218283       0.10529258      12.86512428      11.97507295      -3.45367151      -0.83460701       0.45223741      -1.56344060      -0.65617608
W       11.08403246       1.44340656      14.38300572      -1.22960994       8.34931238      -9.91279117       0.46903845       1.79785748       2.14933799
W        9.51167015       3.28415438      -0.03035149      -1.02347539      -2.15507921       1.78486811       0.15786171      -2.06318565       1.64902668
W       11.12266568       4.68586322       1.61569385       4.21764781       1.57403771      -2.92869742      -0.78265711       1.06172884       0.87069781
W        9.51995604       2.97964732       3.19634669      -5.88640067      -6.30671294      -1.24578093      -0.00258509       3.03667188       0.79377239
W       11.12761723       4.91683213       4.78613277      -1.46171238      -0.46897259       0.62439242      -0.87887292      -2.01969355       0.89142315
W        9.45877320       3.29805293       6.43727068      -4.48749929      -3.82784497       0.45463386       1.75277904      -1.10533104       0.75086902
W       11.13020775       4.91198728       8.04602960      -2.32937735       3.17378296      -0.36208389       0.09383457      -2.25622135      -0.22330860
W        9.45540420       3.17936102       9.67083222      -6.22604136      -6.42170504       5.57184641       1.35351242       0.44463397      -0.56493100
W       11.07794798       4.75296457      11.24309125      -3.62798847      -0.15508420      -0.42610287       0.94361296      -0.32363257       0.64907075
W        9.54477921       3.14625394      12.77086850       5.80487174      -4.94489944       2.68483495      -0.59131341       0.60850309       0.99892404
W       11.12689485       4.79725897      14.41598678      -0.38516031       0.12967551       0.67960043       0.36326885      -0.95107151      -0.20049777
W        9.54926029       6.39139000       0.15386742       0.31550929      -5.11664998       1.69673449      -0.23173369       0.19385593      -0.66765104
W       11.03518550       7.98331262       1.66822636       6.80968629      -4.05665756      -1.27568694      -0.07633521       0.09551034       0.86322067
W        9.43077955       6.29945108       3.26975564      -4.03435536      -2.98184007       5.39433058       1.30558460       1.10218677      -1.05407986
W       11.09342195       8.01685270       4.81739586       3.48183703       1.37306512      -2.26890725      -0.26779871       0.50371135       0.35758581
W        9.61449224       6.37521844       6.44152321      -4.74888030      -1.66387911       0.11113868      -0.77575349       1.10788662       0.11936599
W       11.23012237       7.95706703       8.08842820      -5.78570032       1.76134138      -1.48592283      -1.20026870       1.12087887      -2.03618105
W        9.66295478       6.28164071       9.66878599      -1.30626366       2.77560724      -0.41181901      -2.19180313       1.62116030      -0.65164661
W       11.17714859       7.95708293      11.09215525       5.16737633      -0.41234132       2.14147704      -1.31913705       0.01559826       2.77099444
W        9.56457676       6.25484211      12.89308127      -2.15798817      -2.20013550       0.40696142       0.53975105       2.12004030      -1.08818582
W       11.18638409       7.94848613      14.48003466       8.32149810       0.54274682       3.43158168      -1.56811416       0.97656385      -1.55887930
W        9.40768478       9.51836245       0.15545652      -4.33230125      -3.40178681      -0.09705097       1.12134629       0.16883828      -0.87482407
W       11.22816904      11.19684059       1.72469124      -2.14015495      -6.14691646      -0.30003027      -2.32854347      -0.67455685      -0.90771033
W        9.41295404       9.57903166       3.23262203      -1.60636695      -1.58622011       4.57080503       1.26555482      -0.66821608       0.17570537
W       11.26911605      11.16022505       4.82554965       5.45437613       1.49808857       2.46201712      -2.37396456       0.80001938       0.32137462
W        9.44541665       9.69308714       6.38376430       0.86975352      -0.64776384       0.28819962       1.37090207      -2.14936549       0.50783713
W       11.03459660      11.12485378       8.01957154       1.93256363       0.03180844       2.92639510       0.59523334       0.91508046      -0.06604802
W        9.44936062       9.62529452       9.54014145      -3.91136578       4.09572820       5.46901324       0.41310647      -1.75629533       0.69769486
W       11.08963198      11.01705042      11.13855955      -5.77973100       1.50065235      -0.18638691       0.35214882       2.33929248       1.70121382
W        9.46910972       9.55919045      12.82138279       4.14231542      -1.62070317       0.91460105       1.14064099      -1.73901421      -0.57948793