249
Lattice="15.927500000000002 0.0 0.0 0.0 15.927500000000002 0.0 0.0 0.0 15.927500000000002" Properties=species:S:1:pos:R:3:momenta:R:3:forces:R:3 Temperature=294.68606752991957 energy=103.25756804311118 stress="-0.05871859662682465 -0.0036896073006364204 0.00040078138092871247 -0.0036896073006364204 -0.06083660844771547 -0.001454685671528557 0.00040078138092871247 -0.001454685671528557 -0.05497446028975991" free_energy=103.25756804311118 pbc="T T T"
W        0.04892949      -0.06405745       0.00762212      -0.90295169       1.47024884       1.56718549       1.07838558      -2.99870953      -1.66629962
W        1.60903975       1.59545126       1.60828393       2.65356356       0.32102550       3.46118421       1.30130918       2.19352265      -0.57292370
W       -0.04806403      -0.04965402       3.08005067       0.01858483      -3.25727967      -3.66389193       0.07351192      -0.18271478       0.25837837
W        1.62924514       1.58465954       4.85277837      -4.39242392      -1.26019843       0.11398165      -3.60581828       0.99609081       0.50930207
W       -0.03314891       0.01931031       6.34197705      -2.70594776       2.06206734       1.93413441      -3.35773142       0.55372617       0.40033460
W        1.57083653       1.60434087       8.00232527      -3.53979296      -2.57679516      -4.17623993      -0.45253968      -4.65482849       2.32233261
W       -0.05418174      -0.01258860       9.48363973      -2.25948200      -0.15663123       0.43303283       1.03538806       1.80074882      -3.90217240
W        1.54619275       1.52456125      11.19987667       2.88638790       2.61556499      -2.24624169      -1.08621837       1.34000665       2.80925202
W        0.01936814      -0.05096705      12.71539295       0.13971788       1.48320100      -1.58352265       1.86737056      -2.55519448       1.82893081
W        1.63189867       1.54514900      14.27815474      -0.05563367      -3.70993762      -4.43925269      -0.39083766      -2.71077071      -0.22215441
W       -0.05206163       3.07251428      -0.05161968       3.02607001      -0.30252438       0.38451088       2.01636708      -1.43879420      -0.08707018
W        1.64386674       4.80624301       1.58942315       1.37192763       2.32659881      -1.62423320       1.34210978      -2.16936522       2.34833299
W       -0.01678006       3.16439713       3.17186922      -1.25625780       0.80424581      -1.52170736       0.26428885       0.85532951       2.38451591
W        1.59056588       4.81625994       4.83419269       1.82844403       2.09062148      -2.43911156       1.12355388      -3.10195488      -3.32283036
W       -0.08069671       3.19400261       6.33841650       1.69699147      -0.59709882      -1.61009401      -2.19001472       1.76048846      -0.00093790
W        1.62494334       4.72868849       8.03826478       1.15373593       2.46921097       1.84404057      -0.00941159       0.29137232      -3.98799455
W        0.01962788       3.14791487       9.54730609       3.46982820       2.59774086      -0.91693763      -0.86203265      -1.45074558      -2.36916025
W        1.62924208       4.68997715      11.12756619       0.49097901      -3.09129636      -0.26286843       4.10890361       1.74681543      -0.25373352
W        0.08161186       3.10843153      12.74666208      -0.07707451       1.75005272       3.88125489       0.52945194       2.34835804       2.16206122
W        1.60496330       4.71197586      14.30578350       5.12757607       2.92871166      -1.55943939      -1.42938691      -1.24341530      -2.42773679
W       -0.01688449       6.40273977      -0.00414874       1.94316172       1.21227406       0.16350597      -0.00176156       3.40317966      -1.68232805
W        1.58271665       7.94040881       1.57665165      -2.92967462       3.61935067       0.84902457      -1.89051528       2.85892979      -0.12746441
W        0.00102244       6.39418307       3.19840184      -1.76751864       0.08059562       1.71407426      -2.19706310      -0.16001967       1.65684600
W        1.56047342       7.92693355       4.75543713      -2.73241222      -3.56175169       0.05098559      -1.69460788       1.14494691      -0.71453219
W       -0.04966749       6.38535405       6.39985859      -0.06935849      -0.23352896       0.35728296      -1.43685831      -1.46308419      -0.19108487
W        1.65998757       7.93751060       7.94445280      -0.89994312      -1.43873625       3.88724425       1.54203342      -2.54409003       1.03039377
W        0.12350138       6.34579554       9.54994921       2.79962635      -0.30879876      -0.65665815      -2.61956085       1.89724910       0.87683557
W        1.60999562       7.91092216      11.09348531      -0.94943838      -1.49559780       2.18917864       0.64592318       3.45089308      -1.43254857
W        0.00441446       6.33325106      12.77741623       0.04512430      -4.10559275       1.42951677      -1.81830233      -3.12104758       1.73880388
W        1.71078316       7.88481836      14.27979268      -2.14519507       3.32244759       2.46251753      -2.07535310       0.93187880       0.63173401
W        0.10375636       9.47218848       0.01824992      -5.48719606      -1.45496157       3.83799550      -0.77643199      -0.42702046       1.54612351
W        1.56706130      11.07667960       1.64279202       2.15112652       0.18285740       0.50932651      -4.98851671       1.22123658       2.79819648
W       -0.03762964       9.42995230       3.22005817       4.67632246       2.70624236      -1.33312450       5.64199686       2.71063030      -1.65859527
W        1.58342359      11.14787875       4.77984664       0.14810340      -0.62387995       1.69813757      -2.68121351       0.30096409      -3.40807350
W        0.04593580       9.58686395       6.40421479       3.29929940       2.52275730      -0.94773551      -0.29762979       0.15877595      -3.54057081
W        1.62938424      11.17213917       7.96152570       1.03881916       1.31203486       1.65232087       1.31605234       1.13421473       0.29617430
W       -0.03788893       9.47415821       9.56347030      -0.21865245       2.14606749       0.59242267      -0.91715071      -2.26781068      -3.66541135
W        1.56406591      11.10053066      11.19562387      -0.75574548       0.13156442       0.62524994       1.10972100       1.29349225       1.02692253
W       -0.03584734       9.47047091      12.71573814      -0.97192391      -0.69932516       2.02347731      -0.11869861       0.50381080       2.94888661
W        1.62780415      11.17984349      14.31860362       1.64820331       3.45349825       0.48956529       2.10286882      -0.54598467      -1.09723631
W        0.02166167      12.76612528      -0.01789099       0.48761674      -0.40716675      -2.19298141       0.10441976       1.66144601      -1.20783622
W        1.60437911      14.31405162       1.59784881      -4.34773778       1.78706999      -0.70359281      -3.70771509      -2.27250842      -1.48706222
W       -0.01673308      12.64734556       3.14403606      -2.27114115      -0.32549637      -0.24210471      -0.68745555      -2.27995945      -0.59333838
W        1.58514963      14.28839637       4.73907071       3.65263102       2.07008627      -1.73865141       0.61173554       2.01656681      -3.68373716
W       -0.01474814      12.80707157       6.39247511       0.96907769      -1.47933886      -4.13527375      -0.39449648      -3.50543871       2.72983083
W        1.52686332      14.35404571       8.01799389      -2.24259628       1.13707812      -2.09493907       2.13932644       3.75684430      -1.19886886
W        0.00674469      12.74656215       9.53382982      -3.25242071       0.15516615       2.41293822      -3.51973336      -3.57667914      -1.19555491
W        1.61660416      14.26487552      11.14958022      -3.48772674      -5.54825632       0.37392954      -0.21547838       1.21734281       2.41408725
W       -0.00674982      12.74165833      12.72517715       0.07387202      -0.76638079       3.61421795       2.42439807      -0.40620223      -0.64330563
W        1.61245360      14.26861818      14.22927594       0.31662753       0.07721829       3.90470973      -1.38466819       0.81892321      -0.79285479
W        3.17424189       0.00944691       0.02273192      -1.42679844       3.53966461       2.29647497      -0.36945549      -1.57356464       0.75463029
W        4.69226958       1.55050972       1.61835297      -2.47749712       3.09599364      -0.22070745      -2.72917673       1.13394803       1.10439145
W        3.16252261      -0.00413127       3.22469253       2.81209737      -1.46773208       2.92606992       5.13169777      -0.11355122       0.39614739
W        4.78568030       1.52827135       4.78957672       1.65980454       6.02258414      -1.14847271      -1.59668286      -0.27748082       1.84724149
W        3.12738223      -0.07624928       6.44852314       2.82969268      -1.81598612      -4.27843909       0.45404728      -0.39070381       1.04398586
W        4.79174227       1.65945479       7.96220117      -2.71975568      -1.60851330      -1.97375902      -1.42210866      -1.48399900       0.19240101
W        3.17079762      -0.02527319       9.59882068      -0.72089485      -2.67570986      -1.22735577       0.61986844      -1.95194294      -2.13838291
W        4.78189319       1.67150770      11.16631072       4.29084134       1.01268094       0.38253313      -0.95228462       1.30646183      -1.43017165
W        3.19930396       0.03592208      12.78180693      -1.55214025      -1.98119273       0.09007257      -0.44324874       1.92998303      -3.49090409
W        4.80937076       1.63112100      14.31327659      -1.54133233       0.21401977      -0.18110277      -0.40889198      -2.15157459       1.19718691
W        3.19423798       3.18349231      -0.00088954       1.69500928       1.62107181       3.69612482       2.21060281       0.97127181       3.75220352
W        4.72918689       4.79908915       1.50508671      -1.31993944      -0.06020775      -2.16832794      -1.20291134       0.26423910      -4.05614605
W        3.24236855       3.14677233       3.16449558       1.80442671      -5.17033441      -0.51286859      -0.54651562      -2.47063424      -0.41501567
W        4.81588349       4.74228162       4.75903957      -1.52238950       0.46312519      -0.28774112       1.72913275       2.22294709      -3.04963488
W        3.28234429       3.14453725       6.38832117       0.02111308      -1.26771961      -0.07760156      -1.23108914       2.06185322       1.07609820
W        4.82513868       4.90256524       7.93743630      -0.78743808      -1.82029623       0.02500992      -1.00900222      -0.01487969       1.77159450
W        3.18152438       3.22286955       9.54157065      -3.16038287       1.14359355      -0.21707502       0.55094517      -0.77471117       0.82313937
W        4.81609242       4.87110031      11.16080939      -1.09201615      -0.27132987      -2.87666010       1.50288642      -1.43727630       1.21928857
W        3.20062360       3.18937686      12.68795783      -1.97276143       1.44138783       5.17613992      -3.19472653      -1.39434418      -0.90127459
W        4.77101516       4.77593352      14.35838276      -0.15331533       3.62197893      -1.29882454       1.28917050       2.78563250       2.00720348
W        3.20240999       6.35972729      -0.05223824      -0.17693671      -1.85061841       1.06316098       3.13004943       0.65732041       0.23928066
W        4.76870234       7.93475254       1.61219162       1.37470801      -0.37052073      -2.25708600      -0.69219773      -1.34803538      -2.63667229
W        3.17570359       6.31637726       3.19962407      -0.81223844      -1.36056293      -0.54123217      -4.13292115       2.03151375       1.47180995
W        4.77884837       7.85432810       4.79585058       0.23390953       1.40492864      -0.64702879      -0.86422420       1.06048082       5.08434404
W        3.19093603       6.33580170       6.30783913       2.63327354      -0.94106358      -3.32853853       0.60375758      -0.66128834       3.99996003
W        4.72354292       8.03491228       7.97740848      -1.73128453       2.64159065      -1.43779706       2.38898377      -1.45221407       0.22938537
W        3.19820966       6.39497830       9.54047117      -4.13384550       1.89687930      -1.96414828       1.61144938       1.92646948      -0.62722154
W        4.73349188       8.00239836      11.11520334      -3.62075722       0.76824553       4.13252483      -1.21883069      -1.80044998       1.23343105
W        3.20944298       6.39310571      12.75472037       0.70363318       1.47789600      -1.80724668      -1.87615325      -1.50718833      -2.47193071
W        4.84905630       7.97280361      14.33965850      -1.39705854       1.25776327       1.24596278       1.01055557       0.77627411       1.75830552
W        3.25892294       9.63867283      -0.01552740       0.01997663       0.26940300      -0.14282287       1.98332183      -3.50359094      -2.33334653
W        4.68064428      11.14479745       1.59025745       1.99132785       3.84773387       1.54013743       0.99409437       3.19348190       0.70743927
W        3.08097745       9.50366744       3.19157355      -2.05083344      -2.23266512      -2.24678209       1.86233750      -0.58928867       2.42837448
W        4.83207295      11.12744234       4.80114376       0.42069848       0.79888403      -1.89041167      -3.45934300      -1.65302158      -4.66397952
W        3.23032372       9.66624713       6.32697230      -1.30360835      -0.41159714       1.89378548      -1.54719907       0.99026277      -2.52725381
W        4.78419413      11.22847141       8.01317318       0.58091430       1.82380532      -1.32251360      -1.59131318      -3.02186932       4.50077465
W        3.14828733       9.58291732       9.53773233       0.60485042       0.05471485       1.71141906      -0.84012235       3.20384073       1.52351143
W        4.83644123      11.12636163      11.17807368       1.05561013       1.07685541       2.54206959      -1.89955742       1.42476052       1.63913969
W        3.23846599       9.55564542      12.74326484      -0.57734759      -1.92866643      -1.19918656       0.77535603       0.98557920       0.55101924
W        4.88331198      11.19706166      14.33755215      -1.80195703      -1.92929951      -0.03880246      -2.50335575      -0.54658729      -2.69423580
W        3.18299170      12.73112620      -0.00721996       0.57987591      -0.70356044       2.32386762       1.46702341       1.60275929       2.14440764
W        4.81337741      14.28501472       1.59941210      -1.29604123       0.92677960      -1.09172745      -0.94741807      -1.75269503      -2.40214227
W        3.24566208      12.68045718       3.15200708      -3.74657135       0.09542465       1.44938996       1.76116253      -1.57830771      -0.01847632
W        4.77022514      14.31000171       4.76410036      -0.80731595       0.30542347       0.93313585       1.16925198      -1.02576149      -4.86426524
W        3.18096800      12.76955023       6.34161525       2.23324798      -1.32387104       1.36280524      -0.10200237       0.27869031       3.40710159
W        4.76397121      14.30107903       7.92665543       3.95950330       0.73516985       2.51731682      -0.82545913       0.69724576       3.13175617
W        3.20069834      12.72778631       9.63453472      -0.06611431       0.82427014       0.16304610       4.28454768       0.45654901      -0.23198862
W        4.79054409      14.31112973      11.11747182      -1.86136814      -2.39484327       2.39466772       0.11086717      -4.02839071      -0.40103069
W        3.17359571      12.72490940      12.69365213      -0.60697898       2.90406134      -0.53969676      -1.11273625       0.05186751      -2.50607737
W        4.76703488      14.27518063      14.30120825       4.14499632       1.35654668      -1.11470096       1.81607631       3.55866268       5.28058707
W        6.34802462      -0.06397762       0.01227995       1.10386296       2.28097487       4.26180643      -2.07266112       1.71513099      -1.60114974
W        7.93221311       1.62872291       1.55596481      -1.91221755       0.43712278      -2.57399721       1.20191919      -1.95956901      -1.27445124
W        6.41859051       0.04185479       3.19720552      -3.45725019      -0.75070540       1.47679252      -1.69449091       2.85207127       4.45603298
W        7.93384273       1.66376035       4.80791206      -2.17692497      -3.75359570       0.48826164      -0.87957830      -1.72685217       0.17780623
W        6.34628512      -0.00499661       6.33434458       1.53367664      -4.73058672      -0.75343794       3.89436366       1.42140955       3.40179126
W        7.91634398       1.64243696       7.91978794       0.89554500       2.10522260      -0.23594212      -0.36445015       0.26258117      -2.35002677
W        6.35037037       0.03863003       9.55695670      -0.42616424       0.56216929      -1.95742662       1.68590713       1.69427367      -1.82491873
W        7.89909175       1.58269388      11.17587112       0.12062571      -4.09292448      -1.11322774      -0.07040176       0.07944855       2.73550811
W        6.36206248       0.06745913      12.78255727       2.86743075       0.83175095      -0.87132299      -0.67626867       1.74104309       2.23891225
W        7.97057957       1.57049945      14.38591334      -1.22040804      -1.63683982      -1.58518793      -1.18246753      -2.03941564      -1.77985200
W        6.44449352       3.10690882       0.01781235       1.26948270       1.89093024      -1.93958801      -2.59456403       0.86553660      -2.77717135
W        8.04581892       4.75188882       1.56736078       0.10020318       0.94545871       2.07642736      -0.36872589       1.59261374      -0.08007880
W        6.31850776       3.14026081       3.16747328       3.04726565      -4.87598793       0.86948052       0.93721592      -1.55068843       1.79363931
W        8.00563660       4.84613566       4.80327462      -1.18503353       4.17706385       2.00640422      -0.03719985       1.49813824      -0.31367805
W        6.38225555       3.25917000       6.36493150       0.12747988      -4.73024850       0.02504809       0.74908370       1.39169726      -1.01071361
W        7.93914458       4.77721065       7.99914105      -1.66579597      -0.44195343      -0.59356576      -0.25813324       2.26367272      -3.91660072
W        6.34401890       3.24518017       9.60026221       0.33992837      -1.30351623      -0.55152573      -0.70870250       1.11884709       0.77341120
W        8.03884036       4.77250364      11.12240343      -2.15017033      -4.03225795       1.23309163      -1.70949960       3.96221542      -1.67566300
W        6.45785769       3.17873424      12.74999778      -1.57881596      -4.13067684       0.56993255       3.21727695      -4.30913926      -2.13665533
W        8.01449124       4.74781022      14.33315645       0.16068858      -4.03767719       0.21546706      -0.99045540      -0.26876404      -1.48169446
W        6.39928536       6.38295205       0.04826908       1.25510454      -0.11563857      -2.96210110      -1.35065444       1.39498603       2.76635148
W        7.99809156       8.02682522       1.69867930      -1.51395188       1.39758158       0.46417592       0.72363040       0.13481926       1.16554040
W        6.49373380       6.38471161       3.21804015       0.94037642      -3.02772515      -1.18406180       2.81857495      -4.45242957      -3.57709399
W        7.90374760       8.01652113       4.78304918       0.22801917      -2.83240286      -2.39634888       0.95654192       0.56222207       1.74476510
W        6.37414228       6.50539867       6.42341709      -1.44254359      -0.53252729      -0.16411584       0.94860211      -4.44992087      -0.73593197
W        6.39250669       6.46033453       9.59684453      -4.69634656       3.40053012       0.24301735       1.55538455       0.19911380       0.64522609
W        8.00450635       7.96689319      11.21280678      -0.42193337      -1.07179199      -2.05452487      -2.35920370      -3.48303657      -0.47042804
W        6.36031383       6.34364446      12.80852860      -0.78173881       1.66750998       0.56642170      -0.83666014      -0.01688631      -3.53164805
W        8.00865195       7.94099533      14.38499769      -1.23335941      -2.34574337      -0.56389222       1.30148675       2.08123755       1.54654689
W        6.40479206       9.52543649       0.07156948       0.83622110      -0.06180300      -2.63112821       0.35230953      -0.30609133       0.74578715
W        7.91861434      11.13670432       1.65170014       4.30475953      -2.54846530      -3.24020337       1.74803318       1.13735903      -0.89100192
W        6.37088978       9.49903871       3.25209025       2.46305720      -1.00038413       0.14693692      -0.45691907      -3.00916329      -1.47630722
W        7.92402033      11.05256992       4.81374484       2.09904825      -3.25841188       0.41883484      -0.14068574       0.10856429      -2.08516016
W        6.28191256       9.59781680       6.43223357      -0.28645166       0.65897859      -4.35170966      -0.32433265       4.25470880       0.09353832
W        7.94621491      11.14239398       7.91239028      -0.80179631      -1.26059979       1.34807420       0.55323251      -1.33649919       1.29006010
W        6.46870607       9.49135974       9.51421260      -4.11782263       1.86566396      -0.59331050      -0.09259895       0.54863549       1.06504774
W        7.88872780      11.16106464      11.21351426       1.65004633       1.41720141       0.27375456      -0.92688909       1.47369296       1.38518742
W        6.39098804       9.48697235      12.81861710      -0.00555680       6.86158563       2.06578934       2.50010585      -2.60395026      -0.49902495
W        7.98765987      11.10883292      14.31228252       0.73127977      -0.12201411      -2.16614697       2.67710356       1.48571799      -0.87872742
W        6.38751772      12.71036441       0.03122474      -2.72671448       0.57926352      -2.77584030      -2.92867386       1.72041966       0.91798603
W        7.96269218      14.35288567       1.54411609      -0.63198914       1.03668629      -0.15518191      -0.21610932       1.06116266      -3.36903800
W        6.37104904      12.70059938       3.22023961       1.38131731      -2.30685544       2.51945504      -1.13045160      -1.43970242      -3.23338184
W        8.01673395      14.35096548       4.77252147      -2.48145205       0.65589120       1.12015158       0.37512040       0.65867446       2.53497141
W        6.35545520      12.76736201       6.35541814       2.06439175      -0.71537136       0.18186515       1.64897613       3.52684975       1.29599226
W        7.92121045      14.34985821       7.91741963      -0.36220358       0.87879388      -2.54124560      -0.94593590       2.04687813      -1.08717743
W        6.40388547      12.74010908       9.55599037      -1.20348350      -0.98846796      -0.50680402       0.64495845       2.12418986      -1.44845104
W        8.01983725      14.42246890      11.18581729       0.47225658      -1.85151068      -2.07151790       0.96746551      -3.21371797       3.62684431
W        6.41896735      12.70017262      12.76653226       3.36818799      -2.96879182       0.91618478       0.86413434      -1.09046440      -1.42605401
W        7.98982043      14.27362353      14.33907541      -1.24479744       1.51720081      -2.74892812      -3.22090807       1.73567334      -0.20837049
W        9.50696878       0.02084434      -0.01996557      -1.02897684      -1.08830589      -2.75637885      -2.41523785      -0.13825848       2.28435659
W       11.14686075       1.58296220       1.60631003      -1.76536718       3.11184417       0.26552108       0.69435502       1.54726541      -2.02543056
W        9.56678091      -0.01240941       3.19680728       0.41760320       0.47115903       3.77163447       2.14215590      -0.03059644      -2.67322738
W       11.16761845       1.58233452       4.74793159      -0.15075442      -1.47442949       1.79088992      -2.97716400      -1.99704039       1.77175200
W        9.56744234       0.03454102       6.26050514       3.69070216       3.17967965       5.37336344      -2.43813253       2.24416046       1.03024857
W       11.10654926       1.59720888       7.93928755      -1.38020120      -0.75357784       0.60744770       1.34511918      -2.53876394       0.18186452
W        9.63299287       0.09770445       9.52785521      -1.69490674      -1.35972264       7.98201539       0.78612760      -0.53841644      -0.89343389
W       11.13538204       1.59011868      11.22441265      -0.84502946      -1.55769124      -1.97475823      -1.77475149       0.92830777      -0.63045403
W        9.57899848      -0.04168216      12.74391451       0.65338333       2.32566394       0.85418262       1.56524655       0.44956204       1.87260083
W       11.18507925       1.59266658      14.36698885       0.50090842      -2.57691468       0.87013680       1.65400063       1.70309766      -0.40198581
W        9.63373589       3.21695334       0.00916143      -3.64796177      -1.11409529       0.58683961      -2.09334627      -1.40725876       2.11125817
W       11.21039394       4.68135515       1.60299988      -1.63316601      -0.78632825      -0.33561187       0.74707922      -1.10377942      -1.40133408
W        9.61991360       3.21619668       3.10904400       4.39231147       1.06592064       0.38802076       3.23826839       0.56141610       4.37707931
W       11.14889937       4.78552064       4.82228729       1.31259235      -1.09061410       3.26058984      -0.11536481       1.17506256      -0.02348461
W        9.57887970       3.19673906       6.46508125      -1.88469987      -1.42663152       4.60282708      -5.45702313       2.35150589       1.25703691
W       11.12214623       4.78068675       7.96398495      -0.01575690      -2.91563454      -0.37642992      -4.74348504      -2.30276257       5.67226136
W        9.55093085       3.18222236       9.59028331       1.82332477      -1.62501363      -0.31131401       2.23930355      -0.99591980      -2.14485975
W       11.21106132       4.83468517      11.05207392       0.95653484      -0.42351567       0.29778526      -2.48789268      -0.36354846       0.69447334
W        9.60069176       3.15242633      12.74663301       0.51648471       2.50354390      -0.85006745       3.21112003      -2.96144048       4.23158481
W       11.13532491       4.80387680      14.30889460      -0.59778120      -3.27308588       2.35715227       2.55876927       0.59422264      -1.47834758
W        9.50689460       6.37822136       0.02177544       0.38630420       1.58020423      -2.25410846      -1.23225605       0.63547180       2.00756210
W       11.10825461       8.04046186       1.61866969       0.98674405       4.90101031      -2.47593423      -0.83042826       1.51751112      -0.53976591
W        9.54449138       6.40066196       3.30111220       0.58376303       1.89909706      -1.51370275       0.61773354      -2.00663106      -0.19286997
W       11.09593681       7.98273509       4.79502532      -0.76692268      -0.78118845      -0.33773329       1.01863100       2.21918778       0.62144678
W        9.39581263       6.40395524       6.49158873       3.62619041      -0.24902335       0.74587078      -0.59449150      -1.17706095       0.55857791
W       11.13531191       8.04953636       7.95372499       2.97517824       2.22749772      -0.47882041      -3.42192309       1.32311417      -1.22054920
W        9.56934523       6.51029557       9.52441659       3.20592996      -1.74930176      -0.27820912       0.75545959      -1.93597484      -1.65018844
W       11.12316366       7.91932699      11.09320601       1.58208133      -0.97520765      -2.48582167      -0.14483362       0.48964178       2.59433305
W        9.54532267       6.35596578      12.69628821       1.01736012      -1.21998920       1.99371736      -2.84458823       1.63462630      -1.48761798
W       11.07385839       7.92188009      14.34230722      -2.65155962      -1.76025926      -2.83387299       0.86946674       0.26640712      -1.21664035
W        9.57349923       9.58962254       0.01912952       1.43046534       0.11819957      -0.02736644       0.04923244       4.18507461       1.79423666
W       11.16267214      11.15933588       1.61298434       1.03982441      -3.52735488      -2.94835250      -0.96782064      -0.78041514       0.28686763
W        9.61521839       9.58075183       3.14695014      -1.93423534      -2.87363818      -0.03109150      -0.40590657      -1.91919048      -0.21579137
W       11.13380608      11.07613793       4.80933358       3.20668206       0.99018671      -2.26391309       2.14336608       0.12726470       0.80508562
W        9.49619107       9.44171142       6.37874461       1.22577086       2.73767729      -1.86720931       2.34174026      -0.57596288       3.26464032
W       11.07357595      11.12134057       7.92686629       1.02885424      -3.13251736      -0.66970426       1.48313709      -4.27582197      -0.31966769
W        9.54057697       9.62163670       9.51542466       0.86426501       0.03523850       2.39851031       1.75866441      -0.65031037      -0.22817606
W       11.17036918      11.14899120      11.16846138       2.96786769       0.79722671      -0.26752308      -0.57303836       4.26402699      -2.53778744
W        9.55621829       9.53736395      12.75239844      -1.87219855      -4.19744570       2.26833818       0.21806956      -0.07735675       0.10414564
W       11.24705160      11.10865776      14.34177502       0.15214108       0.04651336      -3.81513000       2.39809444      -1.10194150      -1.37521727