249
Lattice="15.927550320321481 0.0 0.0 0.0 15.927550320321481 0.0 0.0 0.0 15.927550320321481" Properties=species:S:1:pos:R:3:forces:R:3 energy=2.9671237571405973 stress="0.002752869847009462 2.5621944141127983e-18 -1.0214431886825018e-17 2.5621944141127983e-18 0.002752869847009464 -6.59438776822597e-18 -1.0214431886825018e-17 -6.59438776822597e-18 0.0027528698470093635" free_energy=2.9671237571405973 pbc="T T T"
W        0.00000000       0.00000000       0.00000000       0.00027983       0.00027983       0.00027983
W        1.59334691       1.59334691       1.59334691       0.00038958       0.00038958       0.00038958
W        0.00000000       0.00000000       3.18592749       0.00034849       0.00034849       0.00039871
W        1.59364435       1.59364435       4.77879735       0.00028551       0.00028551       0.00029116
W        0.00000000       0.00000000       6.37129649       0.00045596       0.00045596      -0.00000000
W        1.59371064       1.59371064       7.96377516       0.00028551       0.00028551      -0.00029116
W        0.00000000       0.00000000       9.55625383       0.00034849       0.00034849      -0.00039871
W        1.59364435       1.59364435      11.14875297       0.00038958       0.00038958      -0.00038958
W        0.00000000       0.00000000      12.74162283       0.00027983       0.00027983      -0.00027983
W        1.59334691       1.59334691      14.33420341       0.00027963       0.00027963       0.00000000
W        0.00000000       3.18592749       0.00000000       0.00034849       0.00039871       0.00034849
W        1.59364435       4.77879735       1.59364435       0.00028551       0.00029116       0.00028551
W        0.00000000       3.18636800       3.18636800       0.00069310       0.00049804       0.00049804
W        1.59484884       4.77965199       4.77965199       0.00041215       0.00035660       0.00035660
W        0.00000000       3.18664883       6.37146870       0.00081577       0.00054274       0.00000000
W        1.59508162       4.77996057       7.96377516       0.00041215       0.00035660      -0.00035660
W        0.00000000       3.18664883       9.55608162       0.00069310       0.00049804      -0.00049804
W        1.59484884       4.77965199      11.14789833       0.00028551       0.00029116      -0.00028551
W        0.00000000       3.18636800      12.74118232       0.00034849       0.00039871      -0.00034849
W        1.59364435       4.77879735      14.33390597       0.00015963       0.00016674       0.00000000
W        0.00000000       6.37129649       0.00000000       0.00045596      -0.00000000       0.00045596
W        1.59371064       7.96377516       1.59371064       0.00028551      -0.00029116       0.00028551
W        0.00000000       6.37146870       3.18664883       0.00081577       0.00000000       0.00054274
W        1.59508162       7.96377516       4.77996057       0.00041215      -0.00035660       0.00035660
W        0.00000000       6.37186160       6.37186160       0.00099541       0.00000000       0.00000000
W        1.59626242       7.96377516       7.96377516       0.00041215      -0.00035660      -0.00035660
W        0.00000000       6.37186160       9.55568872       0.00081577      -0.00000000      -0.00054274
W        1.59508162       7.96377516      11.14758976       0.00028551      -0.00029116      -0.00028551
W        0.00000000       6.37146870      12.74090149       0.00045596      -0.00000000      -0.00045596
W        1.59371064       7.96377516      14.33383968       0.00015963      -0.00016674       0.00000000
W        0.00000000       9.55625383       0.00000000       0.00034849      -0.00039871       0.00034849
W        1.59364435      11.14875297       1.59364435       0.00038958      -0.00038958       0.00038958
W        0.00000000       9.55608162       3.18664883       0.00069310      -0.00049804       0.00049804
W        1.59484884      11.14789833       4.77965199       0.00028551      -0.00028551       0.00029116
W        0.00000000       9.55568872       6.37186160       0.00081577      -0.00054274      -0.00000000
W        1.59508162      11.14758976       7.96377516       0.00028551      -0.00028551      -0.00029116
W        0.00000000       9.55568872       9.55568872       0.00069310      -0.00049804      -0.00049804
W        1.59484884      11.14789833      11.14789833       0.00038958      -0.00038958      -0.00038958
W        0.00000000       9.55608162      12.74090149       0.00034849      -0.00039871      -0.00034849
W        1.59364435      11.14875297      14.33390597       0.00027963      -0.00027963       0.00000000
W        0.00000000      12.74162283       0.00000000       0.00027983      -0.00027983       0.00027983
W        1.59334691      14.33420341       1.59334691       0.00027963       0.00000000       0.00027963
W        0.00000000      12.74118232       3.18636800       0.00034849      -0.00034849       0.00039871
W        1.59364435      14.33390597       4.77879735       0.00015963       0.00000000       0.00016674
W        0.00000000      12.74090149       6.37146870       0.00045596      -0.00045596      -0.00000000
W        1.59371064      14.33383968       7.96377516       0.00015963       0.00000000      -0.00016674
W        0.00000000      12.74090149       9.55608162       0.00034849      -0.00034849      -0.00039871
W        1.59364435      14.33390597      11.14875297       0.00027963       0.00000000      -0.00027963
W        0.00000000      12.74118232      12.74118232       0.00027983      -0.00027983      -0.00027983
W        1.59334691      14.33420341      14.33420341       0.00036387      -0.00000000      -0.00000000
W        3.18592749       0.00000000       0.00000000       0.00039871       0.00034849       0.00034849
W        4.77879735       1.59364435       1.59364435       0.00029116       0.00028551       0.00028551
W        3.18636800       0.00000000       3.18636800       0.00049804       0.00069310       0.00049804
W        4.77965199       1.59484884       4.77965199       0.00035660       0.00041215       0.00035660
W        3.18664883       0.00000000       6.37146870       0.00054274       0.00081577       0.00000000
W        4.77996057       1.59508162       7.96377516       0.00035660       0.00041215      -0.00035660
W        3.18664883       0.00000000       9.55608162       0.00049804       0.00069310      -0.00049804
W        4.77965199       1.59484884      11.14789833       0.00029116       0.00028551      -0.00028551
W        3.18636800       0.00000000      12.74118232       0.00039871       0.00034849      -0.00034849
W        4.77879735       1.59364435      14.33390597       0.00016674       0.00015963       0.00000000
W        3.18636800       3.18636800       0.00000000       0.00049804       0.00049804       0.00069310
W        4.77965199       4.77965199       1.59484884       0.00035660       0.00035660       0.00041215
W        3.18782179       3.18782179       3.18782179       0.00057591       0.00057591       0.00057591
W        4.78697410       4.78697410       4.78697410       0.00025287       0.00025287       0.00025287
W        3.18861168       3.18861168       6.37154960       0.00054988       0.00054988       0.00000000
W        4.78504002       4.78504002       7.96377516       0.00025287       0.00025287      -0.00025287
W        3.18861168       3.18861168       9.55600072       0.00057591       0.00057591      -0.00057591
W        4.78697410       4.78697410      11.14057622       0.00035660       0.00035660      -0.00041215
W        3.18782179       3.18782179      12.73972853       0.00049804       0.00049804      -0.00069310
W        4.77965199       4.77965199      14.33270148       0.00033718       0.00033718       0.00000000
W        3.18664883       6.37146870       0.00000000       0.00054274      -0.00000000       0.00081577
W        4.77996057       7.96377516       1.59508162       0.00035660      -0.00035660       0.00041215
W        3.18861168       6.37154960       3.18861168       0.00054988       0.00000000       0.00054988
W        4.78504002       7.96377516       4.78504002       0.00025287      -0.00025287       0.00025287
W        3.19089481       6.37301859       6.37301859       0.00021653       0.00000000       0.00000000
W        4.80577522       7.96377516       7.96377516       0.00025287      -0.00025287      -0.00025287
W        3.19089481       6.37301859       9.55453173       0.00054988       0.00000000      -0.00054988
W        4.78504002       7.96377516      11.14251030       0.00035660      -0.00035660      -0.00041215
W        3.18861168       6.37154960      12.73893864       0.00054274      -0.00000000      -0.00081577
W        4.77996057       7.96377516      14.33246870       0.00033718      -0.00033718       0.00000000
W        3.18664883       9.55608162       0.00000000       0.00049804      -0.00049804       0.00069310
W        4.77965199      11.14789833       1.59484884       0.00029116      -0.00028551       0.00028551
W        3.18861168       9.55600072       3.18861168       0.00057591      -0.00057591       0.00057591
W        4.78697410      11.14057622       4.78697410       0.00035660      -0.00041215       0.00035660
W        3.19089481       9.55453173       6.37301859       0.00054988      -0.00054988       0.00000000
W        4.78504002      11.14251030       7.96377516       0.00035660      -0.00041215      -0.00035660
W        3.19089481       9.55453173       9.55453173       0.00057591      -0.00057591      -0.00057591
W        4.78697410      11.14057622      11.14057622       0.00029116      -0.00028551      -0.00028551
W        3.18861168       9.55600072      12.73893864       0.00049804      -0.00049804      -0.00069310
W        4.77965199      11.14789833      14.33270148       0.00016674      -0.00015963       0.00000000
W        3.18636800      12.74118232       0.00000000       0.00039871      -0.00034849       0.00034849
W        4.77879735      14.33390597       1.59364435       0.00016674       0.00000000       0.00015963
W        3.18782179      12.73972853       3.18782179       0.00049804      -0.00069310       0.00049804
W        4.77965199      14.33270148       4.77965199       0.00033718       0.00000000       0.00033718
W        3.18861168      12.73893864       6.37154960       0.00054274      -0.00081577       0.00000000
W        4.77996057      14.33246870       7.96377516       0.00033718      -0.00000000      -0.00033718
W        3.18861168      12.73893864       9.55600072       0.00049804      -0.00069310      -0.00049804
W        4.77965199      14.33270148      11.14789833       0.00016674       0.00000000      -0.00015963
W        3.18782179      12.73972853      12.73972853       0.00039871      -0.00034849      -0.00034849
W        4.77879735      14.33390597      14.33390597       0.00031507       0.00000000       0.00000000
W        6.37129649       0.00000000       0.00000000      -0.00000000       0.00045596       0.00045596
W        7.96377516       1.59371064       1.59371064      -0.00029116       0.00028551       0.00028551
W        6.37146870       0.00000000       3.18664883       0.00000000       0.00081577       0.00054274
W        7.96377516       1.59508162       4.77996057      -0.00035660       0.00041215       0.00035660
W        6.37186160       0.00000000       6.37186160       0.00000000       0.00099541      -0.00000000
W        7.96377516       1.59626242       7.96377516      -0.00035660       0.00041215      -0.00035660
W        6.37186160       0.00000000       9.55568872      -0.00000000       0.00081577      -0.00054274
W        7.96377516       1.59508162      11.14758976      -0.00029116       0.00028551      -0.00028551
W        6.37146870       0.00000000      12.74090149      -0.00000000       0.00045596      -0.00045596
W        7.96377516       1.59371064      14.33383968      -0.00016674       0.00015963       0.00000000
W        6.37146870       3.18664883       0.00000000       0.00000000       0.00054274       0.00081577
W        7.96377516       4.77996057       1.59508162      -0.00035660       0.00035660       0.00041215
W        6.37154960       3.18861168       3.18861168       0.00000000       0.00054988       0.00054988
W        7.96377516       4.78504002       4.78504002      -0.00025287       0.00025287       0.00025287
W        6.37301859       3.19089481       6.37301859      -0.00000000       0.00021653       0.00000000
W        7.96377516       4.80577522       7.96377516      -0.00025287       0.00025287      -0.00025287
W        6.37301859       3.19089481       9.55453173       0.00000000       0.00054988      -0.00054988
W        7.96377516       4.78504002      11.14251030      -0.00035660       0.00035660      -0.00041215
W        6.37154960       3.18861168      12.73893864      -0.00000000       0.00054274      -0.00081577
W        7.96377516       4.77996057      14.33246870      -0.00033718       0.00033718       0.00000000
W        6.37186160       6.37186160       0.00000000      -0.00000000       0.00000000       0.00099541
W        7.96377516       7.96377516       1.59626242      -0.00035660      -0.00035660       0.00041215
W        6.37301859       6.37301859       3.19089481      -0.00000000       0.00000000       0.00021653
W        7.96377516       7.96377516       4.80577522      -0.00025287      -0.00025287       0.00025287
W        6.39753651       6.39753651       6.39753651      -0.00025287      -0.00025287      -0.00025287
W        6.39753651       6.39753651       9.53001381      -0.00000000      -0.00000000      -0.00021653
W        7.96377516       7.96377516      11.12177510      -0.00035660      -0.00035660      -0.00041215
W        6.37301859       6.37301859      12.73665551      -0.00000000       0.00000000      -0.00099541
W        7.96377516       7.96377516      14.33128790      -0.00033718      -0.00033718       0.00000000
W        6.37186160       9.55568872       0.00000000      -0.00000000      -0.00054274       0.00081577
W        7.96377516      11.14758976       1.59508162      -0.00029116      -0.00028551       0.00028551
W        6.37301859       9.55453173       3.19089481       0.00000000      -0.00054988       0.00054988
W        7.96377516      11.14251030       4.78504002      -0.00035660      -0.00041215       0.00035660
W        6.39753651       9.53001381       6.39753651      -0.00000000      -0.00021653      -0.00000000
W        7.96377516      11.12177510       7.96377516      -0.00035660      -0.00041215      -0.00035660
W        6.39753651       9.53001381       9.53001381       0.00000000      -0.00054988      -0.00054988
W        7.96377516      11.14251030      11.14251030      -0.00029116      -0.00028551      -0.00028551
W        6.37301859       9.55453173      12.73665551      -0.00000000      -0.00054274      -0.00081577
W        7.96377516      11.14758976      14.33246870      -0.00016674      -0.00015963       0.00000000
W        6.37146870      12.74090149       0.00000000       0.00000000      -0.00045596       0.00045596
W        7.96377516      14.33383968       1.59371064      -0.00016674       0.00000000       0.00015963
W        6.37154960      12.73893864       3.18861168       0.00000000      -0.00081577       0.00054274
W        7.96377516      14.33246870       4.77996057      -0.00033718       0.00000000       0.00033718
W        6.37301859      12.73665551       6.37301859      -0.00000000      -0.00099541      -0.00000000
W        7.96377516      14.33128790       7.96377516      -0.00033718       0.00000000      -0.00033718
W        6.37301859      12.73665551       9.55453173      -0.00000000      -0.00081577      -0.00054274
W        7.96377516      14.33246870      11.14758976      -0.00016674       0.00000000      -0.00015963
W        6.37154960      12.73893864      12.73893864      -0.00000000      -0.00045596      -0.00045596
W        7.96377516      14.33383968      14.33383968      -0.00031507       0.00000000       0.00000000
W        9.55625383       0.00000000       0.00000000      -0.00039871       0.00034849       0.00034849
W       11.14875297       1.59364435       1.59364435      -0.00038958       0.00038958       0.00038958
W        9.55608162       0.00000000       3.18664883      -0.00049804       0.00069310       0.00049804
W       11.14789833       1.59484884       4.77965199      -0.00028551       0.00028551       0.00029116
W        9.55568872       0.00000000       6.37186160      -0.00054274       0.00081577      -0.00000000
W       11.14758976       1.59508162       7.96377516      -0.00028551       0.00028551      -0.00029116
W        9.55568872       0.00000000       9.55568872      -0.00049804       0.00069310      -0.00049804
W       11.14789833       1.59484884      11.14789833      -0.00038958       0.00038958      -0.00038958
W        9.55608162       0.00000000      12.74090149      -0.00039871       0.00034849      -0.00034849
W       11.14875297       1.59364435      14.33390597      -0.00027963       0.00027963       0.00000000
W        9.55608162       3.18664883       0.00000000      -0.00049804       0.00049804       0.00069310
W       11.14789833       4.77965199       1.59484884      -0.00028551       0.00029116       0.00028551
W        9.55600072       3.18861168       3.18861168      -0.00057591       0.00057591       0.00057591
W       11.14057622       4.78697410       4.78697410      -0.00041215       0.00035660       0.00035660
W        9.55453173       3.19089481       6.37301859      -0.00054988       0.00054988       0.00000000
W       11.14251030       4.78504002       7.96377516      -0.00041215       0.00035660      -0.00035660
W        9.55453173       3.19089481       9.55453173      -0.00057591       0.00057591      -0.00057591
W       11.14057622       4.78697410      11.14057622      -0.00028551       0.00029116      -0.00028551
W        9.55600072       3.18861168      12.73893864      -0.00049804       0.00049804      -0.00069310
W       11.14789833       4.77965199      14.33270148      -0.00015963       0.00016674       0.00000000
W        9.55568872       6.37186160       0.00000000      -0.00054274       0.00000000       0.00081577
W       11.14758976       7.96377516       1.59508162      -0.00028551      -0.00029116       0.00028551
W        9.55453173       6.37301859       3.19089481      -0.00054988       0.00000000       0.00054988
W       11.14251030       7.96377516       4.78504002      -0.00041215      -0.00035660       0.00035660
W        9.53001381       6.39753651       6.39753651      -0.00021653       0.00000000       0.00000000
W       11.12177510       7.96377516       7.96377516      -0.00041215      -0.00035660      -0.00035660
W        9.53001381       6.39753651       9.53001381      -0.00054988       0.00000000      -0.00054988
W       11.14251030       7.96377516      11.14251030      -0.00028551      -0.00029116      -0.00028551
W        9.55453173       6.37301859      12.73665551      -0.00054274      -0.00000000      -0.00081577
W       11.14758976       7.96377516      14.33246870      -0.00015963      -0.00016674       0.00000000
W        9.55568872       9.55568872       0.00000000      -0.00049804      -0.00049804       0.00069310
W       11.14789833      11.14789833       1.59484884      -0.00038958      -0.00038958       0.00038958
W        9.55453173       9.55453173       3.19089481      -0.00057591      -0.00057591       0.00057591
W       11.14057622      11.14057622       4.78697410      -0.00028551      -0.00028551       0.00029116
W        9.53001381       9.53001381       6.39753651      -0.00054988      -0.00054988       0.00000000
W       11.14251030      11.14251030       7.96377516      -0.00028551      -0.00028551      -0.00029116
W        9.53001381       9.53001381       9.53001381      -0.00057591      -0.00057591      -0.00057591
W       11.14057622      11.14057622      11.14057622      -0.00038958      -0.00038958      -0.00038958
W        9.55453173       9.55453173      12.73665551      -0.00049804      -0.00049804      -0.00069310
W       11.14789833      11.14789833      14.33270148      -0.00027963      -0.00027963       0.00000000
W        9.55608162      12.74090149       0.00000000      -0.00039871      -0.00034849       0.00034849
W       11.14875297      14.33390597       1.59364435      -0.00027963       0.00000000       0.00027963
W        9.55600072      12.73893864       3.18861168      -0.00049804      -0.00069310       0.00049804
W       11.14789833      14.33270148       4.77965199      -0.00015963       0.00000000       0.00016674
W        9.55453173      12.73665551       6.37301859      -0.00054274      -0.00081577      -0.00000000
W       11.14758976      14.33246870       7.96377516      -0.00015963       0.00000000      -0.00016674
W        9.55453173      12.73665551       9.55453173      -0.00049804      -0.00069310      -0.00049804
W       11.14789833      14.33270148      11.14789833      -0.00027963       0.00000000      -0.00027963
W        9.55600072      12.73893864      12.73893864      -0.00039871      -0.00034849      -0.00034849
W       11.14875297      14.33390597      14.33390597      -0.00036387      -0.00000000      -0.00000000
W       12.74162283       0.00000000       0.00000000      -0.00027983       0.00027983       0.00027983
W       14.33420341       1.59334691       1.59334691       0.00000000       0.00027963       0.00027963
W       12.74118232       0.00000000       3.18636800      -0.00034849       0.00034849       0.00039871
W       14.33390597       1.59364435       4.77879735       0.00000000       0.00015963       0.00016674
W       12.74090149       0.00000000       6.37146870      -0.00045596       0.00045596      -0.00000000
W       14.33383968       1.59371064       7.96377516       0.00000000       0.00015963      -0.00016674
W       12.74090149       0.00000000       9.55608162      -0.00034849       0.00034849      -0.00039871
W       14.33390597       1.59364435      11.14875297       0.00000000       0.00027963      -0.00027963
W       12.74118232       0.00000000      12.74118232      -0.00027983       0.00027983      -0.00027983
W       14.33420341       1.59334691      14.33420341      -0.00000000       0.00036387      -0.00000000
W       12.74118232       3.18636800       0.00000000      -0.00034849       0.00039871       0.00034849
W       14.33390597       4.77879735       1.59364435       0.00000000       0.00016674       0.00015963
W       12.73972853       3.18782179       3.18782179      -0.00069310       0.00049804       0.00049804
W       14.33270148       4.77965199       4.77965199       0.00000000       0.00033718       0.00033718
W       12.73893864       3.18861168       6.37154960      -0.00081577       0.00054274      -0.00000000
W       14.33246870       4.77996057       7.96377516      -0.00000000       0.00033718      -0.00033718
W       12.73893864       3.18861168       9.55600072      -0.00069310       0.00049804      -0.00049804
W       14.33270148       4.77965199      11.14789833       0.00000000       0.00016674      -0.00015963
W       12.73972853       3.18782179      12.73972853      -0.00034849       0.00039871      -0.00034849
W       14.33390597       4.77879735      14.33390597       0.00000000       0.00031507       0.00000000
W       12.74090149       6.37146870       0.00000000      -0.00045596      -0.00000000       0.00045596
W       14.33383968       7.96377516       1.59371064       0.00000000      -0.00016674       0.00015963
W       12.73893864       6.37154960       3.18861168      -0.00081577      -0.00000000       0.00054274
W       14.33246870       7.96377516       4.77996057       0.00000000      -0.00033718       0.00033718
W       12.73665551       6.37301859       6.37301859      -0.00099541       0.00000000      -0.00000000
W       14.33128790       7.96377516       7.96377516       0.00000000      -0.00033718      -0.00033718
W       12.73665551       6.37301859       9.55453173      -0.00081577       0.00000000      -0.00054274
W       14.33246870       7.96377516      11.14758976       0.00000000      -0.00016674      -0.00015963
W       12.73893864       6.37154960      12.73893864      -0.00045596      -0.00000000      -0.00045596
W       14.33383968       7.96377516      14.33383968       0.00000000      -0.00031507       0.00000000
W       12.74090149       9.55608162       0.00000000      -0.00034849      -0.00039871       0.00034849
W       14.33390597      11.14875297       1.59364435       0.00000000      -0.00027963       0.00027963
W       12.73893864       9.55600072       3.18861168      -0.00069310      -0.00049804       0.00049804
W       14.33270148      11.14789833       4.77965199       0.00000000      -0.00015963       0.00016674
W       12.73665551       9.55453173       6.37301859      -0.00081577      -0.00054274       0.00000000
W       14.33246870      11.14758976       7.96377516       0.00000000      -0.00015963      -0.00016674
W       12.73665551       9.55453173       9.55453173      -0.00069310      -0.00049804      -0.00049804
W       14.33270148      11.14789833      11.14789833       0.00000000      -0.00027963      -0.00027963
W       12.73893864       9.55600072      12.73893864      -0.00034849      -0.00039871      -0.00034849
W       14.33390597      11.14875297      14.33390597      -0.00000000      -0.00036387      -0.00000000
W       12.74118232      12.74118232       0.00000000      -0.00027983      -0.00027983       0.00027983
W       14.33420341      14.33420341       1.59334691      -0.00000000      -0.00000000       0.00036387
W       12.73972853      12.73972853       3.18782179      -0.00034849      -0.00034849       0.00039871
W       14.33390597      14.33390597       4.77879735       0.00000000       0.00000000       0.00031507
W       12.73893864      12.73893864       6.37154960      -0.00045596      -0.00045596      -0.00000000
W       14.33383968      14.33383968       7.96377516       0.00000000       0.00000000      -0.00031507
W       12.73893864      12.73893864       9.55600072      -0.00034849      -0.00034849      -0.00039871
W       14.33390597      14.33390597      11.14875297      -0.00000000      -0.00000000      -0.00036387
W       12.73972853      12.73972853      12.73972853      -0.00027983      -0.00027983      -0.00027983
W       14.33420341      14.33420341      14.33420341       0.00000000       0.00000000       0.00000000
249
Lattice="15.927550320321481 0.0 0.0 0.0 15.927550320321481 0.0 0.0 0.0 15.927550320321481" Properties=species:S:1:pos:R:3:forces:R:3 energy=2.9671237571405973 stress="0.002752869847009462 2.5621944141127983e-18 -1.0214431886825018e-17 2.5621944141127983e-18 0.002752869847009464 -6.59438776822597e-18 -1.0214431886825018e-17 -6.59438776822597e-18 0.0027528698470093635" free_energy=2.9671237571405973 pbc="T T T"
W        0.00137241       0.00137241       0.00137241       0.00027983       0.00027983       0.00027983
W        1.59751769       1.59751769       1.59751769       0.00038958       0.00038958       0.00038958
W        0.00309414       0.00309414       3.18669159       0.00034849       0.00034849       0.00039871
W        1.60107243       1.60107243       4.78112815       0.00028551       0.00028551       0.00029116
W        0.00323548       0.00323548       6.37114944       0.00045596       0.00045596      -0.00000000
W        1.59867176       1.59867176       7.96418657       0.00028551       0.00028551      -0.00029116
W        0.00110625       0.00110625       9.55621907       0.00034849       0.00034849      -0.00039871
W        1.59457743       1.59457743      11.14989619       0.00038958       0.00038958      -0.00038958
W        0.00040608       0.00040608      12.74251650       0.00027983       0.00027983      -0.00027983
W        1.59435923       1.59435923      14.33737116       0.00027963       0.00027963       0.00000000
W        0.00309414       3.18669159       0.00309414       0.00034849       0.00039871       0.00034849
W        1.60107243       4.78112815       1.60107243       0.00028551       0.00029116       0.00028551
W        0.00791426       3.18968934       3.18968934       0.00069310       0.00049804       0.00049804
W        1.61105356       4.78803640       4.78803640       0.00041215       0.00035660       0.00035660
W        0.00897884       3.19056429       6.37276574       0.00081577       0.00054274       0.00000000
W        1.60420475       4.78537879       7.96700015       0.00041215       0.00035660      -0.00035660
W        0.00346416       3.18731305       9.55675110       0.00069310       0.00049804      -0.00049804
W        1.59471934       4.77869147      11.15227365       0.00028551       0.00029116      -0.00028551
W        0.00096509       3.18601129      12.74344408       0.00034849       0.00039871      -0.00034849
W        1.59515177       4.77909190      14.33941816       0.00015963       0.00016674       0.00000000
W        0.00323548       6.37114944       0.00323548       0.00045596      -0.00000000       0.00045596
W        1.59867176       7.96418657       1.59867176       0.00028551      -0.00029116       0.00028551
W        0.00897884       6.37276574       3.19056429       0.00081577       0.00000000       0.00054274
W        1.60420475       7.96700015       4.78537879       0.00041215      -0.00035660       0.00035660
W        0.01043315       6.37477169       6.37477169       0.00099541       0.00000000       0.00000000
W        1.59228273       7.96870779       7.96870779       0.00041215      -0.00035660      -0.00035660
W        0.00041296       6.37192699       9.55788218       0.00081577      -0.00000000      -0.00054274
W        1.58998541       7.96376512      11.15275495       0.00028551      -0.00029116      -0.00028551