249
Lattice="15.927500000000002 0.0 0.0 0.0 15.927500000000002 0.0 0.0 0.0 15.927500000000002" Properties=species:S:1:pos:R:3:momenta:R:3:forces:R:3 Temperature=977.9729743767413 energy=38.612252662607844 stress="-0.015078052506071273 -0.0014691911066326386 -0.00010333952076322462 -0.0014691911066326386 -0.015512868174774727 0.002781768066983478 -0.00010333952076322462 0.002781768066983478 -0.016177378756791497" free_energy=38.612252662607844 pbc="T T T"
W       -0.07204169      -0.02997819       0.04089638      -1.83265339      -1.84686246       6.42984237       1.07005756       0.61045256      -0.70856234
W        1.64307891       1.68752635       1.37983896       3.09190646      -1.97038669      -1.53661344      -0.09588115      -2.39351619       2.88519969
W       -0.03841061      -0.09480643       3.12512443       1.19398284      -4.60901683      10.79405171       0.76653569       1.71781227       0.62623680
W        1.65703449       1.58451517       4.67178621      -3.08181343       5.98448005       4.68223995      -0.68107819      -0.31864984       0.40332395
W       -0.08868996       0.03920129       6.39287887       1.76221711       2.24308026      -0.53569828      -0.01901301      -0.67549765      -0.71180344
W        1.35457987       1.64858505       7.93221479      -4.78005000       2.50587116       1.91748153       3.36354546      -0.71717737      -0.19413608
W        0.14101590       0.03574387       9.59779776       7.51109672      -0.12631515     -12.05325982      -2.40933132      -0.57989399      -0.70479320
W        1.79101455       1.61668772      11.09528230       6.38169237       3.35656679      -4.56152925      -2.70067892      -0.77136375       0.73570638
W        0.03819344       0.05300989      12.69217413      -0.26411700      -6.18444263      -6.87077234      -0.25728872      -0.21242624       0.85922693
W        1.63427619       1.55479850      14.28923058       1.65485589       1.41212909       6.61159190      -0.37380370      -0.50933586      -0.67346204
W        0.05235002       3.01066014      -0.06494991       0.79280892       4.78744144       4.52400081      -0.61325542       2.24864734       0.50171111
W        1.66630981       4.80188556       1.46143090      -3.36427912       3.23411302       4.12014493       0.05024129      -0.78492716       1.56018944
W        0.21274893       3.21943183       3.09493986      -1.29821221      -0.01591085       3.31702128      -1.79343298      -1.26833585       0.70421677
W        1.71599407       4.72509665       4.72497660      -1.45657414       3.02010893      -5.68058151      -1.75369023       0.57006670       0.54516281
W       -0.15183563       3.09883210       6.30559203       5.76082139      -2.03865782       6.06197417       1.76934494       1.35315439      -0.16180773
W        1.49221565       4.75141937       8.12489944      -1.56967507      -1.42119905       3.30680540       0.99424717       0.42519948      -2.35925646
W       -0.05855689       3.16044976       9.56430532      -4.11899564       8.89564073      -4.03749262       0.57770973      -0.42777055       0.97718356
W        1.56105344       4.85653813      11.16849882      -1.91186344      -4.22857281       8.83541843       0.77390589      -1.20549137      -0.28048459
W        0.14472676       3.28738091      12.75635170      -0.52169472       2.41843616       6.14232196      -1.47490016      -2.25750657      -0.29712143
W        1.57481431       4.78655627      14.43594379      -0.91409493      -1.31349496      -6.55632436       0.54525140      -0.91274766      -1.33758673
W       -0.06894524       6.25154135       0.00835760       2.78743785      -1.78547922       2.06914954       1.10812579       1.61583462       0.20946239
W        1.44319705       8.01642314       1.51371980       1.13211781       2.64494432       1.58476793       2.68136772      -0.27883326       1.06068268
W        0.03540015       6.24973118       3.17812262       2.78321910       0.54273866      -0.10453056      -0.63444494       1.87624696      -0.30536388
W        1.49050180       7.97090748       4.86933518      -1.54483434       0.24212328       5.81953873       1.15299675      -0.53237030      -1.12899897
W        0.03479116       6.19763146       6.34736066      -5.79867752       4.38244468      -1.13656617      -0.51924312       1.43030641       1.09275218
W        1.45014782       8.05010351       7.96156457       0.14687709      -4.70621368       1.56085480       0.92163093      -0.59393838       0.84511031
W       -0.13875895       6.31864494       9.71245252      -3.31460189      -3.87344974      -3.92303209       2.69130269       1.28148668      -2.22259509
W        1.63782663       7.85427937      11.23024312       1.67185497      -1.28463547       1.05772468      -0.50352690       1.08134076      -1.29719546
W        0.00632654       6.20938512      12.96566605       3.52378280      -3.86815142      -7.59065698      -0.04927396       2.06191233      -3.25220745
W        1.78176567       7.82330649      14.30620952      -7.01916155      -5.27819321       5.78808063      -1.94210390       1.80135781       0.62579374
W        0.17278211       9.58627638      -0.06782655      -7.64025473       3.31077906      -2.53442663      -2.29803086      -1.00256855       0.16978330
W        1.59626403      11.23060513       1.61778632      -8.15516095       3.26493538      10.64937249       0.39799094      -1.08503817      -0.43079823
W       -0.01564248       9.58345729       3.15048211      -2.08804891       4.27004527      -2.38374346      -1.25610278      -1.30998719      -0.04839147
W        1.46150879      10.91077347       4.67193547       3.98951304      -0.46466769       3.01325063       1.74141646       4.08141423       1.73179962
W       -0.01438526       9.70959847       6.51176024       5.87550581       1.59908855     -10.04353816      -0.14835846      -1.88110108      -1.44343288
W        1.68314360      11.30115265       7.97885303      -0.14326961       0.84979767      -3.82626472      -1.82375824      -1.97550809      -0.14497917
W       -0.15581395       9.70900656       9.58135306       3.27342673       6.99215409      -3.67312796       2.04597514      -2.05263956       0.11478516
W        1.51754168      11.00892239      11.35421439      -6.36348543       1.39795425      -2.89122191       0.66058246       1.56069630      -2.61222000
W       -0.01623647       9.36639629      12.60814824      -0.69697345       5.19653336       0.43606384       0.87857247       0.89458291       2.67673542
W        1.48526288      11.10948186      14.27761839       4.84154051       2.58651039      -0.13176240       2.05424217      -0.08109632       0.64081632
W        0.07979986      12.80228407       0.09147869      -3.32907522       4.58896805      -1.40317872      -1.53633032      -1.15396854      -1.06250905
W        1.63152749      14.26547838       1.62461464      -6.68955394      -2.88114101      -0.74406774       0.04425187       1.11597762      -0.87516599
W       -0.08399236      12.83060274       3.33308264      -3.49086094      -4.04515968      -4.53622926       0.19611167      -1.75227998      -2.02972176
W        1.49974726      14.31811520       4.74916560      -2.66543550      -2.54937598      -1.12272297       0.96740961      -0.07485030      -0.04485611
W       -0.07591711      12.72693381       6.36263707       3.87518810       4.74012788      -2.45084566       1.19991486       0.14444890      -0.28973573
W        1.52980836      14.40979734       7.83587420       1.41808584      -3.08797479      -1.16946459      -0.00942421      -1.10473461       1.48317693
W       -0.05231246      12.71647491       9.51071235       4.78187418       2.76127136      -3.06197966       1.00661771       0.94306349       0.92039865
W        1.47821592      14.28895334      11.26801992       6.61695975      -2.23341298       1.91295164       1.81274730       0.31838475      -2.09827399
W       -0.11877438      12.74400026      12.70874874      -3.00067236       1.11999175       1.96770610       1.17573621      -0.41610847       0.90657470
W        1.47587896      14.27102982      14.32035067      -4.53342493      -6.29090713      -2.84953428       1.70841700       1.01087061       0.18949213
W        3.17116877      -0.06160619      -0.13749095       1.81824979      -2.49241696       3.34292297      -0.02174879      -0.49525427       1.08694721
W        4.72083856       1.54045229       1.55489836       2.66426809      -1.32245504       2.35396341       1.36239932       0.51968545      -0.09177538
W        3.25013713       0.02647573       2.99537492       2.60716150      -1.25049511       3.47963431      -2.13587974      -0.65928759       1.71933734
W        4.81604442       1.51885379       4.76998091      -0.69876824       6.72687719      -6.64276644      -1.24943451       1.14032713       0.47422675
W        3.10840823      -0.10305861       6.28648901      -0.50277433      -5.07493306       1.41446335       0.24019409       1.87459027       0.30561599
W        4.67501265       1.49397553       7.97315262       3.43766891      -2.03179485       2.06396109       0.24169889       1.18031333      -0.81366019
W        3.23026447      -0.13887547       9.48224770      -2.51391408       1.63106088      -2.61798768      -0.93377930       1.18375322       0.50060203
W        4.76007693       1.54332688      11.18274332       0.78550774      -4.45750599      -2.13378559      -0.09077048       0.54714391      -0.76237206
W        3.32842821      -0.09940263      12.70545667      -2.74471625      -4.76817446       5.61057380      -1.74713751       0.99155221       0.47142848
W        4.77774682       1.53705310      14.40579119      -4.36535478       0.46967416      -7.20401547       0.66805397       0.69138745      -2.13306310
W        3.22884456       3.07084516      -0.10921547       0.45354681       0.83460628       3.01525124       0.11180718       1.91745985       0.96434866
W        4.78793747       4.84281514       1.52989918      -4.44184924       3.64633880      -3.74305898       0.31053722      -1.22403425       0.62494638
W        3.40238148       3.22067288       3.19485415       4.41250551       0.65764581      -3.76238015      -3.29438634      -0.31419555      -1.30700702
W        4.73601537       4.70841298       4.78943362       3.52139069       1.00315545       4.42005382       1.03381311       1.51445004      -0.87874064
W        3.14774620       3.20085643       6.36520391      -2.80448745       0.94529231      -1.41139225      -0.31110038      -1.05682693       0.16331717
W        4.74158485       4.80496579       7.83283943      -5.68640113      -1.17025732       1.73409744       0.27384989      -0.15170489       2.01901308
W        3.10726086       3.19852070       9.53989450      -6.36058019      -0.15194733       7.99608319       1.23536458      -0.31185649      -0.47454723
W        4.85855897       4.77737739      10.95670116       0.51574309       0.32926894      -1.35738726      -0.98439887       0.33411898       1.47877428
W        3.05564480       3.34895371      12.73469508       4.24652466      -1.04340733      -1.08698802       2.91258643      -2.27697719      -0.26791225
W        4.79967642       4.74144801      14.28771514      -2.37039899      -2.88042536      -1.06301348       0.50154403      -0.00849659      -0.05795193
W        3.19747752       6.38743063      -0.00601372      -1.28118427       4.19624150       3.06518758       0.21478197      -0.79233170       0.10001671
W        4.80303344       7.82715823       1.60958792       2.48972355       0.69472472      -0.35980196      -0.98661567       2.91650873       0.33122633
W        3.07230205       6.45899051       3.09440985      -2.51382311      -3.34757861       2.82882334       1.22605808      -0.95489378       1.27020187
W        4.78821796       7.87770556       4.83289611      -6.58418701       0.44387230      -2.09194233      -1.04843694       0.92332257      -1.02789509
W        3.19854050       6.34892226       6.38315897      -1.27885206      -1.78499437       0.51620391      -1.52253627       0.29039692      -0.24243925
W        4.49499295       7.98270057       7.98551017      -0.74499519       2.99744963      -4.52371343       3.53229498      -0.05988729      -0.54059920
W        3.24279623       6.45311106       9.53196500      -1.16160375      -2.77897867      -1.19378530      -1.66444477      -1.09275978       0.12870760
W        4.86135238       7.95643423      10.96966257      -6.41969417      -3.95296745      -1.28024324      -0.15506097      -0.11132530       2.13946449
W        3.21728325       6.25312407      12.68993199       0.68972550      -6.81295308       6.58873521       1.14996497       1.57270072       0.30992555
W        4.80336311       7.85485835      14.49120910       1.67742621       3.19136757      -1.92878150       0.48944641       1.02521387      -3.28039811
W        3.24361504       9.62457758       0.00532809       0.99434291       3.49864152      -4.02125889      -0.35380744      -0.26877049       0.42168817
W        4.84208124      11.34435758       1.62221981      -4.29145423       4.94114869      -1.15342232      -0.73522829      -3.21051698      -0.41525754
W        3.20362223       9.59375126       3.24067489      -8.23110523       2.90939509       1.04584215       0.14114488      -1.04683739      -1.42351953
W        4.83583021      11.17453387       4.88067701       0.50953070      -8.84880311       1.21848189      -0.68117892      -0.71820335      -2.04374550
W        3.25942256       9.57806837       6.26143093       3.60626525      -0.49265929       2.28883476      -1.91846558      -0.46792182       1.86797228
W        4.76184127      11.11903757       7.98908995      -4.99342500      -1.76882438      -2.93171166      -0.55049844       0.36995102      -0.63510443
W        3.09839423       9.66673569       9.63463084       9.19789278       0.81527865       3.79632461      -0.06222810      -1.16483191      -0.63601781
W        4.71157036      11.22048012      11.16639361       0.29668441       0.39117485       2.06277977       0.66268774      -1.06751190      -0.29345137
W        3.36463858       9.41550781      12.82976508      -2.93411649       1.74118526      -1.35014981      -1.84930346       0.70069070      -1.25901697
W        4.80687118      11.15378063      14.27824167      -2.96210061       1.15674582      -0.17255021      -0.15016323      -0.35559923       0.72957264
W        3.27020033      12.75088510      -0.11352760     -10.63227623       0.61689526       2.29437439      -0.79250482      -0.22363034       1.22424157
W        4.82072536      14.28858379       1.57191602       2.21428044      -0.21069110      -2.41478489      -0.56044338       0.84569923      -0.86454632
W        3.19656940      12.67061721       3.22452952       6.08359262       3.65339591       2.20679008      -0.70598898       1.27514319      -0.81703907
W        4.69626897      14.44112367       4.60040590      -2.02649921      -5.74164485      -2.16152587       0.74587321      -2.10420486       2.57057598
W        3.20751437      12.69370558       6.27341455       3.18874462      -1.12455311      -2.39655717      -1.24105780       0.50590268       0.62015492
W        4.67835302      14.20697860       7.85492190      -4.17954071       1.78747471       1.47567557       1.15947409       1.68169347       0.82602128
W        3.06424637      12.79422457       9.57809232       8.18660606      -3.86985876      -2.29064259       0.94486428      -0.51833699       0.32520534
W        4.81219127      14.27911548      11.18307571      -2.43663096      -4.44066847       2.91031107       0.10917082       0.03949454      -0.94258160
W        3.08602114      12.70372166      12.79984906       0.22338560       3.14961187      -4.54508576       0.92913830      -0.00365385      -0.84789208
W        4.90883196      14.30026054      14.27420291       2.37990195       0.16681306       3.34441886      -1.15555164       0.26559785       0.84922460
W        6.35219400       0.08424761       0.11412279      -4.90931966       2.99980650      -1.27947895       1.04719203      -1.79369985      -1.55139999
W        7.94190690       1.55412146       1.65026919      -3.79701610      -0.37122549      -3.82845939       0.03578969       0.54490371      -1.48592506
W        6.32281583       0.00429141       3.28478802       0.92382194      -2.17082073       5.08663789       0.52596682      -0.21197837      -2.27115732
W        7.92235104       1.52892366       4.75603664      -0.56939017      -5.64275351      -5.20190469       0.26670071       1.41550761       0.56755242
W        6.37094769       0.03788105       6.29251250       0.92442759      -2.54066506      -3.10985473      -0.85400134      -0.68855872       1.42677332
W        7.84124540       1.65954694       7.92467766      -0.11214260       3.36814806       1.13947546       0.50239152      -0.82600674       0.24198086
W        6.27780720       0.02559244       9.55370693      -8.07424065       1.80359551       4.40228136       1.15183471      -1.00414077      -1.12067622
W        7.91874756       1.65151384      11.00095615      -4.44299500       4.62521946       2.05152049       1.18916447      -1.29590480       1.92614030
W        6.41817288       0.06228095      12.75304525      -7.78542008      -0.14277285      -2.44092989       0.45542940      -0.57999743      -0.32501427
W        7.97870114       1.75131468      14.30645107      -0.06329180      -5.62336950       5.53576524       0.28338931      -1.66000781      -0.38359682
W        6.37208455       3.14092786       0.03452402      -2.28838785      -0.72780327       1.48943148       0.64901052       1.40983874      -0.98287632
W        8.01763138       4.82127010       1.57627713       4.24971908      -2.96562104       2.57241945      -1.25347965      -0.79116234       0.34859956
W        6.28880078       3.04526166       3.13171862       8.80503097       1.53948818      -2.34770239       1.47526697       2.32749074       0.36727837
W        7.93289415       4.78177386       4.76307242      -4.12907949      -4.64560278      -1.91265672       0.21911942      -0.23373906      -0.20338681
W        6.29349094       3.31323741       6.26314152      -1.44245456      -2.29432428       5.35638733       0.84847870      -2.14486868       1.49198999
W        8.05983362       4.74447167       7.98808911       5.66520229      -7.73189702      -1.07289624      -1.43151862       0.52970047       0.04094227
W        6.33746163       3.17777110       9.54894400       2.16523947       1.59517886       2.19515870      -0.32492493       0.25996032      -1.88744687
W        8.01939084       4.70373013      11.13194649      -6.45155556      -8.53107464       0.54769911       0.12537683       1.62549037      -0.29142671
W        6.30587613       3.21834353      12.55411339      -1.02435241       2.30271620      -1.07457293       0.64586889      -0.62057403       2.53338802
W        8.01652193       4.81528706      14.29964962      -2.27851100       3.65565551       1.96766445      -0.53060325      -1.00016883       0.60268585
W        6.41113620       6.41741973      -0.03894445      -7.09044746       1.66925923      -3.57510913       0.25217782      -1.93143087       0.38716686
W        7.90283146       7.90467322       1.66198461       0.10160914       4.90421846       5.95884106       0.96076695       1.03876673      -1.32348556
W        6.32903689       6.37156348       3.20611670       0.61593287       1.68214945     -12.35962346       0.15953191      -1.26870481      -0.36182658
W        7.90270724       8.03802396       4.65788676      -0.72003873      -4.59126542       0.35783169      -0.14861553      -1.95140100       2.61023261
W        6.41714592       6.39534497       6.38677423       3.96898521      -5.48444238      -8.35549194      -0.28316035       0.00521078       0.56059266
W        6.62418852       6.43142549       9.44288056       4.15607718      -2.23037631       5.77473101      -1.63363732       0.32142231      -0.14807579
W        8.02986861       8.06633189      11.13831310       1.27005510       0.55582898       4.49042623      -0.73706795      -1.69714382      -0.20809541
W        6.42935206       6.24285048      12.59672574       3.38162383      -1.39486974       2.79435897      -0.55182490       1.86036344       1.10487421
W        7.90372741       7.96515267      14.30610749       0.91682948      -1.54603411       0.44273642       0.84161627      -0.08898363       0.94468451
W        6.24420984       9.53475339      -0.06827024       0.02419255      -2.56258113      -3.91128968       2.18731665       0.56615682       1.33166339
W        7.99270936      11.08235009       1.68843556       1.50592732       2.80115294      -0.64015420      -0.75011755       0.20350340      -1.44390410
W        6.38071416       9.51245954       3.17616053       2.66451220      -3.41012715       4.63366693      -1.23977128       1.04317878      -0.14883524
W        7.88667407      11.17786241       4.82349357       4.69409414      -3.92046714      -2.64366474      -0.55650114       0.24082497       0.14511960
W        6.31496646       9.35739226       6.35443914       0.40279671       2.26833532      -1.74974083       0.76877788       1.73924866       0.86594242
W        7.91532543      11.12077369       7.86561496      -2.17250498       2.42976618      -1.18795454      -0.04859813      -0.29458080       0.06871617
W        6.30263503       9.65995197       9.44775284       1.51082282       2.56176839       2.52346830       0.61958479      -2.07573437       0.41776297
W        7.98536115      11.08155185      10.97547173      -8.07227795      -0.36330395      -3.68521092      -0.17474117       1.46360799       1.78117619
W        6.40993260       9.57633388      12.66233970       6.40650440       4.48360849      -0.29986562      -0.58980032      -0.74734011       0.19730981
W        7.98743574      11.10150685      14.28374079      -1.70786933       6.85704600      -0.45059661      -0.32573487       0.41569320       0.64278197
W        6.49313390      12.71287458      -0.00781587      -4.04731871       4.39512354      -0.78246550      -1.19476818       0.59832229       0.05878980
W        7.94916188      14.29637992       1.75867602       3.60985628      -3.60534743       0.64901838       0.65309868       0.54129911      -2.85043914
W        6.37748630      12.82316054       3.15282425       2.04324176       1.30654284      -3.38299354       0.02109793      -1.46595980       1.12034598
W        7.97994787      14.34423206       4.71186793       1.29348935      12.24789918       1.58794295      -0.76316988      -0.32400248       1.56070544
W        6.33451801      12.79047306       6.38452682       0.92475631      -6.86852459       6.62339251       0.22724173      -0.34872739      -0.91156299
W        7.97294634      14.35876875       7.85560851       2.93333513       3.80708732       4.46916782      -1.36897844       0.19695094       1.49742481
W        6.34310209      12.60429532       9.44191091      -1.79993136      -1.00680671      -6.23157094       0.03252782       2.55993035       1.22132720
W        8.07158901      14.46020615      10.94079943       0.95665233       1.82046163       0.34169769      -1.02005266      -1.65425176       2.01848378
W        6.41671796      12.71735614      12.73980483      -4.11309499       0.34430811      -0.76287062       0.44704517       0.44421523      -1.25068053
W        7.91337583      14.35751555      14.35322750       0.74628489      -0.28115090      -8.39184597       1.76279268       0.37045769      -0.71109592
W        9.59244228       0.13215074      -0.15018491      -1.63951350       3.52738220       3.78928865      -1.31092727      -1.60197509       1.75458903
W       11.08880367       1.59315224       1.43254635       3.08402185      -1.50472765       8.09215958       1.30070433      -0.34925900       2.52244370
W        9.43912495      -0.06227564       3.20130707       3.50685933       1.82960548      -6.01127981       2.07771685       0.42998734      -0.53808571
W       11.06269421       1.57861738       4.64922229      -0.74371361       1.02591557       3.45725833       0.49995890      -0.59314759       1.12685436
W        9.45962246       0.04226750       6.44720336      -0.65227845       5.95958426       3.09273568       0.62482888      -0.19606484      -1.42019358
W       11.03670706       1.60982902       7.94568973       0.05318894      -0.15805542      -5.81862346       1.77862054      -0.44434162       0.41926476
W        9.72658309       0.02055640       9.48245154      -3.98983194       2.08037187       1.37711661      -2.68268269      -0.07417994       1.02886260
W       11.28422110       1.47795262      11.19142181       1.73522444      -4.42613295      -6.72941809      -1.83312422       1.25861336      -0.89803514
W        9.65466329      -0.04205896      12.73367272       4.66132315       2.12163695       1.36120987      -1.07832544       0.67167947      -0.24394286
W       11.31892500       1.60018174      14.32502704      -0.32260879      -5.42361536       1.76785854      -2.46890659       0.26315536      -1.16555053
W        9.70214455       3.24764936       0.09978832       5.61352176       5.26115154      -6.65764502      -2.24975073      -0.45688659      -2.25245833
W       11.11343299       4.77554316       1.68149683      -1.16570678      -3.28097258      -0.89156637       1.72578149       0.22218802      -0.45722122
W        9.49687132       3.13763247       3.05967844       6.32278368      -2.48540635      -1.19023312       0.51025812       0.53357477       2.51167799
W       11.11636443       4.69342913       4.88315489       2.36847273       1.67747523      -5.02758437      -0.38414867       0.94245598      -1.27961314
W        9.56103954       3.12871260       6.44206783       2.05112384      -0.13351338       1.68696735      -0.87600828       1.01717064      -1.57147559
W       11.20036866       4.71279780       7.95050791      -4.94462377      -0.33993793       0.64607572       0.19971519       1.12694073       0.17718935
W        9.53924262       3.21977265       9.58002313       5.36716913       0.31568360       0.24251651       1.07870150      -0.86428078      -0.62567740
W       11.14209297       4.85883499      11.03473436      -2.55839110      -0.53813702       8.27108551       0.99840484      -1.43237486       1.74555230
W        9.63902593       3.12719456      12.65132979      -6.58867793       1.06520671      -4.74851062      -0.58703390       0.66815993       1.21684082
W       11.13874721       4.69686021      14.27076888       3.55254340      -0.97514100       4.65363032       0.49045180       1.05621213       0.36230767
W        9.68311130       6.33093298       0.10792824      -3.85280289      -4.79347994       0.33630093      -1.56249631       0.94229830      -0.80997424
W       11.20580244       8.04797031       1.70081315      -4.11249368      -3.27779324      -3.29346852      -1.25512387      -1.27520939      -0.30977427
W        9.48487456       6.39934931       3.23835253       1.66258943       1.27544803      -6.74167133       0.80709121      -0.57502151       0.21462882
W       11.03363690       7.97508398       4.98238647      -0.27812318       3.85246481       4.63642179       1.34402457      -0.77345866      -2.65884885
W        9.33686597       6.38067788       6.49510010       1.52372336       2.89033440      -1.97311731       2.17836337       0.48904813      -0.76359920
W       11.01332739       8.05648008       7.96940094       0.91461691      -0.83137030       0.49671159       1.25067637      -2.55745670       0.16186021
W        9.69865073       6.42190335       9.66939631       5.41237333      -3.38588254       8.63367120      -1.84357316      -0.06545620      -1.53347659
W       11.17770836       7.89745248      11.27778715       1.62025384       1.89791829      -2.65346931      -0.65232671       1.94559960      -0.97098818
W        9.51451938       6.39161142      12.91591958       1.82281365       1.74765743      -3.96365673       0.91836538      -0.43507385      -2.09585697
W       11.20482050       7.92763373      14.43539266      -1.56929758       3.40588232       1.95373126      -0.20515285       0.54569270      -0.82976297
W        9.54463498       9.48181378       0.11059530      -0.85394557       2.66800214      -5.36421083      -0.15804060       0.54436027      -0.48571036
W       11.14454546      11.07187398       1.55957511       9.54504244      -1.11043681      -1.39828980      -0.36061522       1.20484408       0.83096788
W        9.42013003       9.62370490       3.43685640      -4.57467637      -0.30030834      -1.55887150       1.57693968      -1.14997349      -3.77935552
W       10.99689401      11.21184634       4.93975201       0.24911763      -2.68966526      -3.95109930       2.82047205      -0.70952460      -1.83181594
W        9.59000732       9.62369227       6.21670946       2.52274907       1.41565018      -3.39509447      -2.59655762      -1.12686126       4.01689392
W       11.05265621      10.97407436       7.99192191      -3.32120048       0.33576459      -0.66438675       0.97150358       2.29856830       0.73249851
W        9.46304793       9.50093114       9.47919074      -1.12462777       5.58266792       2.99175697       0.59216443       0.63518655       0.61581497
W       11.16015527      11.20882338      11.27705503      -3.39631108       7.17669839       6.94594271      -0.58119824      -2.23763319      -1.38465008
W        9.54191388       9.53386831      12.84802993      -4.54538679      -3.39333030       7.00168815       1.02681010       0.35141067      -0.92864950
W       11.08393309      11.13615983      14.45560751       7.55275291       1.57349517      -2.66907917       0.86689580      -0.13173239      -0.97804544