1979
Lattice="140.45173609424543 0.0 0.0 0.0 144.15972914162288 0.0 0.0 0.0 2.7587326394906753" Properties=species:S:1:pos:R:3:fix_mask:L:1:forces:R:3 energy=244.98090324695067 pbc="T T T"
W       13.00101329      55.56156115      -0.33637455  T       0.00000000       0.00000000       0.00000000
W       13.00186637      60.06653775      -0.36890513  T       0.00000000       0.00000000       0.00000000
W       11.70192563      62.31903496       0.53237436  T       0.00000000       0.00000000       0.00000000
W       13.00288011      64.57153439      -0.40248474  T       0.00000000       0.00000000       0.00000000
W       11.70298358      66.82403518       0.49912994  T       0.00000000       0.00000000       0.00000000
W       10.40308305      69.07653487      -1.35733336  T       0.00000000       0.00000000       0.00000000
W       13.00400739      69.07653469      -0.43675615  T       0.00000000       0.00000000       0.00000000
W       11.70411910      71.32903251       0.46542392  T       0.00000000       0.00000000       0.00000000
W       10.40420814      73.58152790       1.36834266  T       0.00000000       0.00000000       0.00000000
W       13.00518326      73.58152785       2.28741935  T       0.00000000       0.00000000       0.00000000
W       11.70526615      75.83402098       3.19038245  T       0.00000000       0.00000000       0.00000000
W       13.00633467      78.08651221       2.25300371  T       0.00000000       0.00000000       0.00000000
W       11.70635682      80.33900362       3.15693870  T       0.00000000       0.00000000       0.00000000
W       13.00739265      82.59149578       2.21914638  T       0.00000000       0.00000000       0.00000000
W       11.70733215      84.84399151       3.12420061  T       0.00000000       0.00000000       0.00000000
W       13.00830329      87.09649361       2.18622412  T       0.00000000       0.00000000       0.00000000
W       20.80227624      42.04713135      -0.22004833  T       0.00000000       0.00000000       0.00000000
W       19.50189726      44.29945399       0.67979060  T       0.00000000       0.00000000       0.00000000
W       18.20158951      46.55181586      -1.17906351  T       0.00000000       0.00000000       0.00000000
W       20.80246005      46.55187275      -0.25044582  T       0.00000000       0.00000000       0.00000000
W       16.90135198      48.80421278      -0.27906728  T       0.00000000       0.00000000       0.00000000
W       19.50220052      48.80425023       0.64869332  T       0.00000000       0.00000000       0.00000000
W       18.20201507      51.05666255      -1.21072487  T       0.00000000       0.00000000       0.00000000
W       20.80284883      51.05669168      -0.28318321  T       0.00000000       0.00000000       0.00000000
W       15.60118108      51.05663967       0.62112202  T       0.00000000       0.00000000       0.00000000
W       14.30107082      53.30909099      -1.23715723  T       0.00000000       0.00000000       0.00000000
W       16.90189799      53.30910362      -0.31115298  T       0.00000000       0.00000000       0.00000000
W       19.50272129      53.30912000       0.61543401  T       0.00000000       0.00000000       0.00000000
W       18.20266251      55.56157509      -1.24434748  T       0.00000000       0.00000000       0.00000000
W       20.80347772      55.56158576      -0.31813881  T       0.00000000       0.00000000       0.00000000
W       15.60184109      55.56156711       0.58875232  T       0.00000000       0.00000000       0.00000000
W       14.30183429      57.81404696      -1.26967333  T       0.00000000       0.00000000       0.00000000
W       16.90266171      57.81404994      -0.34498206  T       0.00000000       0.00000000       0.00000000
W       19.50348103      57.81405418       0.58019668  T       0.00000000       0.00000000       0.00000000
W       18.20353791      60.06653904      -1.27969254  T       0.00000000       0.00000000       0.00000000
W       20.80435990      60.06654057      -0.35506270  T       0.00000000       0.00000000       0.00000000
W       15.60270648      60.06653817       0.55486795  T       0.00000000       0.00000000       0.00000000
W       14.30278364      62.31903439      -1.30347071  T       0.00000000       0.00000000       0.00000000
W       16.90363350      62.31903390      -0.38027033  T       0.00000000       0.00000000       0.00000000
W       19.50447429      62.31903354       0.54328885  T       0.00000000       0.00000000       0.00000000
W       18.20461789      64.57153289      -1.31640748  T       0.00000000       0.00000000       0.00000000
W       20.80510044      64.57146642      -0.39351333  F       0.00000005       0.00000001       0.00000001
W       15.60375283      64.57153366       0.51978810  T       0.00000000       0.00000000       0.00000000
W       14.30388170      66.82403469      -1.33820594  T       0.00000000       0.00000000       0.00000000
W       16.90477425      66.82403415      -0.41663336  T       0.00000000       0.00000000       0.00000000
W       19.50566044      66.82403353       0.50514174  T       0.00000000       0.00000000       0.00000000
W       18.20584609      69.07653425      -1.35403541  T       0.00000000       0.00000000       0.00000000
W       20.80635908      69.07649318      -0.43306942  F       0.00000005       0.00000000       0.00000001
W       15.60492855      69.07653449       0.48391599  T       0.00000000       0.00000000       0.00000000
W       14.30506823      71.32903250      -1.37346911  T       0.00000000       0.00000000       0.00000000
W       16.90601650      71.32903248      -0.45360393  T       0.00000000       0.00000000       0.00000000
W       19.50696377      71.32903247       0.46629074  T       0.00000000       0.00000000       0.00000000
W       18.20713860      73.58152774       1.36668995  T       0.00000000       0.00000000       0.00000000
W       20.80771608      73.58152534       2.28566154  F       0.00000005       0.00000000       0.00000001
W       15.60616000      73.58152780       3.20644838  T       0.00000000       0.00000000       0.00000000
W       14.30626797      75.83402069       1.34992238  T       0.00000000       0.00000000       0.00000000
W       16.90727396      75.83402037       2.26806823  T       0.00000000       0.00000000       0.00000000
W       19.50828473      75.83402000       3.18606801  T       0.00000000       0.00000000       0.00000000
W       18.20839866      78.08651092       1.32887071  T       0.00000000       0.00000000       0.00000000
W       20.80905753      78.08654365       2.24587380  F       0.00000005      -0.00000000       0.00000001
W       15.60736336      78.08651159       3.17041069  T       0.00000000       0.00000000       0.00000000
W       14.30740329      80.33900290       1.31495935  T       0.00000000       0.00000000       0.00000000
W       16.90845737      80.33900217       2.23144329  T       0.00000000       0.00000000       0.00000000
W       19.50952001      80.33900143       3.14761777  T       0.00000000       0.00000000       0.00000000
W       18.20953604      82.59149533       1.29179024  T       0.00000000       0.00000000       0.00000000
W       20.81062175      82.59149551       2.20688943  T       0.00000000       0.00000000       0.00000000
W       15.60845998      82.59149545       3.13501320  T       0.00000000       0.00000000       0.00000000
W       14.30840772      84.84399223       1.28080166  T       0.00000000       0.00000000       0.00000000
W       16.90949148      84.84399349       2.19574284  T       0.00000000       0.00000000       0.00000000
W       19.51058409      84.84399549       3.11023562  T       0.00000000       0.00000000       0.00000000
W       18.21048400      87.09650191       1.25593589  T       0.00000000       0.00000000       0.00000000
W       20.81158578      87.09650858       2.16938003  T       0.00000000       0.00000000       0.00000000
W       15.60938990      87.09649708       3.10068336  T       0.00000000       0.00000000       0.00000000
W       14.30923583      89.34900684       1.24781797  T       0.00000000       0.00000000       0.00000000
W       16.91032714      89.34901545       2.16138258  T       0.00000000       0.00000000       0.00000000
W       19.51142401      89.34902682       3.07439192  T       0.00000000       0.00000000       0.00000000
W       18.21120812      91.60155332       1.22169809  T       0.00000000       0.00000000       0.00000000
W       20.81229916      91.60157522       2.13372386  T       0.00000000       0.00000000       0.00000000
W       15.61011951      91.60153632       3.06777103  T       0.00000000       0.00000000       0.00000000
W       16.91094517      93.85408770       2.12868208  T       0.00000000       0.00000000       0.00000000
W       19.51202315      93.85411718       3.04043753  T       0.00000000       0.00000000       0.00000000
W       18.21170545      96.10666684       1.18935461  T       0.00000000       0.00000000       0.00000000
W       20.81276480      96.10671359       2.10021809  T       0.00000000       0.00000000       0.00000000
W       15.61064171      96.10662935       3.03653423  T       0.00000000       0.00000000       0.00000000
W       16.91135270      98.35922316       2.09785753  T       0.00000000       0.00000000       0.00000000
W       19.51239523      98.35927932       3.00859759  T       0.00000000       0.00000000       0.00000000
W       18.21199684     100.61185046       1.15907170  T       0.00000000       0.00000000       0.00000000
W       20.81301204     100.61193004       2.06902590  T       0.00000000       0.00000000       0.00000000
W       19.51257328     102.86451511       2.97898191  T       0.00000000       0.00000000       0.00000000
W       20.81308352     105.11721972       2.04019626  T       0.00000000       0.00000000       0.00000000
W       27.30510451      30.78614663       0.79611946  T       0.00000000       0.00000000       0.00000000
W       26.00443698      33.03826464      -1.06183135  T       0.00000000       0.00000000       0.00000000
W       28.60552358      33.03852658      -0.12900947  T       0.00000000       0.00000000       0.00000000
W       24.70381216      35.29041890      -0.16137866  T       0.00000000       0.00000000       0.00000000
W       27.30486153      35.29064072       0.77089496  T       0.00000000       0.00000000       0.00000000
W       26.00424901      37.54279577      -1.08826648  T       0.00000000       0.00000000       0.00000000
W       28.60528739      37.54301158      -0.15569428  T       0.00000000       0.00000000       0.00000000
W       23.40323884      37.54261348       0.73881010  T       0.00000000       0.00000000       0.00000000
W       22.10272480      39.79485077      -1.11992668  T       0.00000000       0.00000000       0.00000000
W       24.70369559      39.79499567      -0.18895255  T       0.00000000       0.00000000       0.00000000
W       27.30469116      39.79516933       0.74292225  T       0.00000000       0.00000000       0.00000000
W       26.00416283      42.04737687      -1.11743875  T       0.00000000       0.00000000       0.00000000
W       28.60514115      42.04754024      -0.18536421  T       0.00000000       0.00000000       0.00000000
W       23.40320941      42.04724231       0.71018628  T       0.00000000       0.00000000       0.00000000
W       22.10279645      44.29953543      -1.14949614  T       0.00000000       0.00000000       0.00000000
W       24.70371068      44.29963532      -0.21921672  T       0.00000000       0.00000000       0.00000000
W       27.30464428      44.29975814       0.71199210  T       0.00000000       0.00000000       0.00000000
W       26.00423357      46.55203118      -1.14949828  T       0.00000000       0.00000000       0.00000000
W       28.60473008      46.55188054      -0.21823652  F       0.00000005       0.00000002       0.00000000
W       23.40334018      46.55194332       0.67895506  T       0.00000000       0.00000000       0.00000000
W       22.10305342      48.80429725      -1.18155531  T       0.00000000       0.00000000       0.00000000
W       24.70391348      48.80435652      -0.25225589  T       0.00000000       0.00000000       0.00000000
W       27.30435422      48.80419764       0.67797432  F       0.00000005       0.00000002       0.00000000
W       26.00408701      51.05657255      -1.18448290  F       0.00000006       0.00000001       0.00000000
W       28.60453543      51.05640924      -0.25438479  F       0.00000011       0.00000003       0.00000001
W       23.40368421      51.05672890       0.64510083  T       0.00000000       0.00000000       0.00000000
W       22.10354166      53.30914130      -1.21604998  T       0.00000000       0.00000000       0.00000000
W       24.70393316      53.30899704      -0.28801682  F       0.00000005       0.00000001       0.00000001
W       27.30435148      53.30882952       0.64087306  F       0.00000011       0.00000002       0.00000001
W       26.00431869      55.56129607      -1.22231744  F       0.00000010       0.00000002       0.00000001
W       28.60466989      55.56111770      -0.29378426  F       0.00000016       0.00000003       0.00000002
W       23.40391798      55.56146743       0.60875823  F       0.00000005       0.00000001       0.00000000
W       22.10429194      57.81406015      -1.25279866  T       0.00000000       0.00000000       0.00000000
W       24.70447942      57.81382979      -0.32635714  F       0.00000008       0.00000002       0.00000001
W       27.30475798      57.81365099       0.60082905  F       0.00000014       0.00000003       0.00000002
W       26.00495706      60.06623730      -1.26273613  F       0.00000013       0.00000002       0.00000002
W       28.60522296      60.06604773      -0.33619256  F       0.00000019       0.00000003       0.00000002
W       23.40466308      60.06641451       0.57015865  F       0.00000007       0.00000001       0.00000001
W       22.10484147      62.31894613      -1.29140511  F       0.00000006       0.00000001       0.00000001
W       24.70520587      62.31882267      -0.36688420  F       0.00000012       0.00000001       0.00000002
W       27.30550605      62.31866041       0.55820163  F       0.00000018       0.00000002       0.00000003
W       26.00586718      64.57126295      -1.30529342  F       0.00000016       0.00000001       0.00000003
W       28.60616073      64.57112456      -0.38112042  F       0.00000022       0.00000002       0.00000003
W       23.40552170      64.57137560       0.52975085  F       0.00000010       0.00000001       0.00000002
W       22.10595347      66.82393320      -1.33149206  F       0.00000007       0.00000001       0.00000001
W       24.70630715      66.82384986      -0.40911220  F       0.00000014       0.00000001       0.00000002
W       27.30663477      66.82375399       0.51357943  F       0.00000020       0.00000001       0.00000003
W       26.00715759      69.07636414      -1.34933510  F       0.00000017       0.00000001       0.00000003
W       28.60749282      69.07629163      -0.42781217  F       0.00000024       0.00000001       0.00000003
W       23.40678916      69.07642785       0.48807448  F       0.00000011       0.00000001       0.00000002
W       22.10730125      71.32899108      -1.37241449  F       0.00000008       0.00000000       0.00000002
W       24.70770070      71.32895308      -0.45233774  F       0.00000014       0.00000001       0.00000002
W       27.30808445      71.32891469       0.46777338  F       0.00000021       0.00000001       0.00000003
W       26.00865991      73.58150507       1.36470712  F       0.00000018       0.00000000       0.00000003
W       28.60908008      73.58149912       2.28344774  F       0.00000024       0.00000000       0.00000003
W       23.40821555      73.58151550       3.20459093  F       0.00000011       0.00000000       0.00000002
W       22.10870459      75.83404586       1.34526154  F       0.00000008      -0.00000000       0.00000001
W       24.70919690      75.83405934       2.26299589  F       0.00000014      -0.00000000       0.00000002
W       27.30967759      75.83408298       3.18048527  F       0.00000021      -0.00000000       0.00000003
W       26.01021282      78.08662493       1.32028469  F       0.00000017      -0.00000000       0.00000002
W       28.61073521      78.08669042       2.23628968  F       0.00000023      -0.00000001       0.00000003
W       23.40966655      78.08657422       3.16260755  F       0.00000011      -0.00000000       0.00000002
W       22.11010665      80.33904610       1.30477331  F       0.00000006      -0.00000000       0.00000001
W       24.71069005      80.33912739       2.22025945  F       0.00000013      -0.00000001       0.00000002
W       27.31125415      80.33922092       3.13525017  F       0.00000019      -0.00000001       0.00000002
W       26.01168863      82.59172229       1.27702096  F       0.00000015      -0.00000001       0.00000002
W       28.61228697      82.59184789       2.19050831  F       0.00000021      -0.00000002       0.00000002
W       23.41110469      82.59162081       3.12159892  F       0.00000008      -0.00000001       0.00000001
W       22.11131387      84.84408353       1.26552571  F       0.00000005      -0.00000001       0.00000000
W       24.71200795      84.84419444       2.17896401  F       0.00000010      -0.00000001       0.00000001
W       27.31265865      84.84432884       3.09171288  F       0.00000016      -0.00000002       0.00000002
W       26.01294629      87.09677311       1.23567738  F       0.00000011      -0.00000001       0.00000001
W       28.61361168      87.09696438       2.14699351  F       0.00000017      -0.00000002       0.00000001
W       23.41225437      87.09662756       3.08225475  F       0.00000006      -0.00000001       0.00000001
W       22.11252595      89.34904187       1.22803611  T       0.00000000       0.00000000       0.00000000
W       24.71317211      89.34920193       2.13973541  F       0.00000006      -0.00000001       0.00000000
W       27.31385209      89.34939565       3.05059052  F       0.00000012      -0.00000002       0.00000001
W       26.01402237      91.60181627       1.19681590  F       0.00000006      -0.00000001       0.00000000
W       28.61468737      91.60206860       2.10637865  F       0.00000012      -0.00000002       0.00000001
W       23.41339122      91.60160357       3.04502951  T       0.00000000       0.00000000       0.00000000
W       22.11309927      93.85415456       1.19275256  T       0.00000000       0.00000000       0.00000000
W       24.71417112      93.85420219       2.10299919  T       0.00000000       0.00000000       0.00000000
W       27.31478658      93.85447752       3.01235564  F       0.00000006      -0.00000001       0.00000000
W       26.01485908      96.10684570       1.16079066  T       0.00000000       0.00000000       0.00000000
W       28.61545598      96.10719127       2.06902390  F       0.00000006      -0.00000002       0.00000000
W       23.41381714      96.10677212       3.01030698  T       0.00000000       0.00000000       0.00000000
W       22.11342852      98.35934859       1.15986057  T       0.00000000       0.00000000       0.00000000
W       24.71444917      98.35943429       2.06902388  T       0.00000000       0.00000000       0.00000000
W       27.31545297      98.35954066       2.97725484  T       0.00000000       0.00000000       0.00000000
W       26.01499562     100.61214588       1.12774090  T       0.00000000       0.00000000       0.00000000
W       28.61595529     100.61229136       2.03504659  T       0.00000000       0.00000000       0.00000000
W       23.41401296     100.61202714       2.97818932  T       0.00000000       0.00000000       0.00000000
W       22.11355622     102.86462271       1.12945431  T       0.00000000       0.00000000       0.00000000
W       24.71452006     102.86475257       2.03783202  T       0.00000000       0.00000000       0.00000000
W       27.31546053     102.86490950       2.94529569  T       0.00000000       0.00000000       0.00000000
W       26.01495479     105.11752620       1.09761301  T       0.00000000       0.00000000       0.00000000
W       28.61585125     105.11772523       2.00432499  T       0.00000000       0.00000000       0.00000000
W       23.41403081     105.11735945       2.94869758  T       0.00000000       0.00000000       0.00000000
W       22.11353135     107.36996548       1.10151989  T       0.00000000       0.00000000       0.00000000
W       24.71444128     107.37014056       2.00937058  T       0.00000000       0.00000000       0.00000000
W       27.31532466     107.37034711       2.91635308  T       0.00000000       0.00000000       0.00000000
W       26.01479504     109.62296443       1.07028228  T       0.00000000       0.00000000       0.00000000
W       28.61563907     109.62321212       1.97666941  T       0.00000000       0.00000000       0.00000000
W       27.31510086     111.87582756       2.89023615  T       0.00000000       0.00000000       0.00000000
W       28.61536819     114.12872488       1.95183095  T       0.00000000       0.00000000       0.00000000
W       36.40967807      24.03078265      -0.03938275  T       0.00000000       0.00000000       0.00000000
W       32.50770450      26.28236662      -0.07262808  T       0.00000000       0.00000000       0.00000000
W       35.10890343      26.28277647       0.86223042  T       0.00000000       0.00000000       0.00000000
W       33.80813299      28.53477598      -0.99551769  T       0.00000000       0.00000000       0.00000000
W       36.40933913      28.53519863      -0.06004455  T       0.00000000       0.00000000       0.00000000
W       31.20695510      28.53439697       0.82865015  T       0.00000000       0.00000000       0.00000000
W       29.90622487      30.78644767      -1.02931544  T       0.00000000       0.00000000       0.00000000
W       32.50737550      30.78679034      -0.09512505  T       0.00000000       0.00000000       0.00000000
W       35.10855747      30.78717823       0.84001232  T       0.00000000       0.00000000       0.00000000
W       33.80779196      33.03917595      -1.01929954  T       0.00000000       0.00000000       0.00000000
W       36.40897753      33.03957255      -0.08354932  T       0.00000000       0.00000000       0.00000000
W       31.20664115      33.03882877       0.80472374  T       0.00000000       0.00000000       0.00000000
W       29.90594121      35.29090000      -1.05464455  T       0.00000000       0.00000000       0.00000000
W       32.50705448      35.29120223      -0.12045741  T       0.00000000       0.00000000       0.00000000
W       35.10820426      35.29155307       0.81480068  T       0.00000000       0.00000000       0.00000000
W       33.80746512      37.54356754      -1.04619735  T       0.00000000       0.00000000       0.00000000
W       36.40825111      37.54353974      -0.11041904  F       0.00000004       0.00000002      -0.00000000
W       31.20635807      37.54326670       0.77787698  T       0.00000000       0.00000000       0.00000000
W       29.90571606      39.79537744      -1.08294538  T       0.00000000       0.00000000       0.00000000
W       32.50647791      39.79537077      -0.14902012  F       0.00000003       0.00000002      -0.00000000
W       35.10736509      39.79550494       0.78609661  F       0.00000006       0.00000003      -0.00000000
W       33.80653408      42.04746432      -1.07667550  F       0.00000008       0.00000003      -0.00000000
W       36.40735424      42.04749579      -0.14108750  F       0.00000012       0.00000004      -0.00000001
W       31.20578971      42.04745096       0.74775501  F       0.00000004       0.00000002      -0.00000000
W       29.90521018      44.29962889      -1.11451179  F       0.00000005       0.00000002       0.00000000
W       32.50585755      44.29955789      -0.18113333  F       0.00000009       0.00000004      -0.00000000
W       35.10655942      44.29951785       0.75352579  F       0.00000014       0.00000005      -0.00000000
W       33.80589733      46.55165355      -1.11100763  F       0.00000015       0.00000005       0.00000000
W       36.40655723      46.55156873      -0.17600863  F       0.00000019       0.00000006       0.00000000
W       31.20529642      46.55175964       0.71412445  F       0.00000010       0.00000003       0.00000000
W       29.90485318      48.80404809      -1.14949651  F       0.00000010       0.00000003       0.00000001
W       32.50536867      48.80389593      -0.21706035  F       0.00000016       0.00000004       0.00000001
W       35.10592405      48.80375379       0.71671387  F       0.00000020       0.00000006       0.00000001
W       33.80544767      51.05604949      -1.14949466  F       0.00000021       0.00000005       0.00000001
W       36.40594493      51.05586805      -0.21561825  F       0.00000026       0.00000006       0.00000001
W       31.20498213      51.05623082       0.67680181  F       0.00000016       0.00000004       0.00000001
W       29.90474656      53.30864295      -1.18798352  F       0.00000016       0.00000004       0.00000001
W       32.50513954      53.30844261      -0.25697053  F       0.00000021       0.00000005       0.00000002
W       35.10554228      53.30823005       0.67536347  F       0.00000027       0.00000006       0.00000002
W       33.80533374      55.56069374      -1.19226981  F       0.00000027       0.00000005       0.00000002
W       36.40566406      55.56044958      -0.26017565  F       0.00000032       0.00000006       0.00000002
W       31.20500545      55.56091663       0.63575201  F       0.00000021       0.00000004       0.00000002
W       29.90504213      57.81345671      -1.22986833  F       0.00000020       0.00000003       0.00000002
W       32.50531643      57.81323904      -0.30082284  F       0.00000026       0.00000004       0.00000002
W       35.10557754      57.81299469       0.62941944  F       0.00000032       0.00000005       0.00000002
W       33.80569435      60.06561559      -1.23917674  F       0.00000031       0.00000004       0.00000003
W       36.40589042      60.06535603      -0.30961485  F       0.00000037       0.00000005       0.00000003
W       31.20547107      60.06584388       0.59118544  F       0.00000025       0.00000004       0.00000003
W       29.90576412      62.31848170      -1.27478815  F       0.00000024       0.00000003       0.00000003
W       32.50598369      62.31828223      -0.34826277  F       0.00000030       0.00000003       0.00000003
W       35.10616282      62.31805448       0.57920441  F       0.00000036       0.00000004       0.00000003
W       33.80660273      64.57078099      -1.28966332  F       0.00000034       0.00000003       0.00000003
W       36.40674661      64.57056629      -0.36337707  F       0.00000040       0.00000004       0.00000003
W       31.20640596      64.57096490       0.54362785  F       0.00000028       0.00000003       0.00000003
W       29.90692152      66.82363952      -1.32208103  F       0.00000026       0.00000002       0.00000003
W       32.50716066      66.82350553      -0.39855166  F       0.00000032       0.00000002       0.00000003
W       35.10734597      66.82334827       0.52553460  F       0.00000039       0.00000003       0.00000003
W       33.80803541      69.07610759      -1.34272316  F       0.00000036       0.00000002       0.00000003
W       36.40822637      69.07599003      -0.42030253  F       0.00000042       0.00000002       0.00000003
W       31.20778793      69.07620688       0.49395160  F       0.00000030       0.00000001       0.00000003
W       29.90844057      71.32887315      -1.37079526  F       0.00000027       0.00000001       0.00000003
W       32.50875937      71.32882660      -0.45056638  F       0.00000034       0.00000001       0.00000003
W       35.10903223      71.32877326       0.46974327  F       0.00000040       0.00000001       0.00000003
W       33.80982876      73.58149883       1.36178530  F       0.00000037       0.00000000       0.00000003
W       36.41014377      73.58150425       2.28005606  F       0.00000043      -0.00000000       0.00000002
W       31.20947167      73.58149717       3.20205973  F       0.00000030       0.00000000       0.00000003
W       29.91013787      75.83411767       1.33895909  F       0.00000027      -0.00000000       0.00000003
W       32.51057353      75.83416416       2.25582537  F       0.00000033      -0.00000001       0.00000003
W       35.11097968      75.83422479       3.17227819  F       0.00000039      -0.00000001       0.00000003
W       33.81172364      78.08687636       1.30801854  F       0.00000036      -0.00000002       0.00000003
W       36.41218431      78.08700744       2.22224834  F       0.00000042      -0.00000002       0.00000002
W       31.21123930      78.08677258       3.15181141  F       0.00000030      -0.00000001       0.00000003
W       29.91181231      80.33933077       1.29092146  F       0.00000025      -0.00000001       0.00000003
W       32.51235929      80.33946730       2.20462465  F       0.00000032      -0.00000002       0.00000003
W       35.11289121      80.33963810       3.11748266  F       0.00000038      -0.00000003       0.00000003
W       33.81346751      82.59220729       1.25626659  F       0.00000033      -0.00000003       0.00000002
W       36.41403938      82.59245619       2.16692915  F       0.00000039      -0.00000004       0.00000002
W       31.21288230      82.59200735       3.10321784  F       0.00000027      -0.00000002       0.00000003
W       29.91329560      84.84450455       1.24490592  F       0.00000022      -0.00000002       0.00000002
W       32.51391998      84.84472611       2.15585990  F       0.00000028      -0.00000003       0.00000002
W       35.11453168      84.84500053       3.06565787  F       0.00000034      -0.00000004       0.00000002