1979
Lattice="140.45173612959917 0.0 0.0 0.0 144.15972917790998 0.0 0.0 0.0 2.7587326401850887" Properties=species:S:1:pos:R:3:fix_mask:L:1:forces:R:3 energy=-18692.10289275989 pbc="T T T"
W       13.00100126      55.56156136      -0.33637440  T       0.00000000       0.00000000       0.00000000
W       13.00185707      60.06653783      -0.36890498  T       0.00000000       0.00000000       0.00000000
W       11.70191804      62.31903500       0.53237450  T       0.00000000       0.00000000       0.00000000
W       13.00287404      64.57153442      -0.40248462  T       0.00000000       0.00000000       0.00000000
W       11.70297936      66.82403520       0.49913003  T       0.00000000       0.00000000       0.00000000
W       10.40308068      69.07653489      -1.35733331  T       0.00000000       0.00000000       0.00000000
W       13.00400490      69.07653471      -0.43675609  T       0.00000000       0.00000000       0.00000000
W       11.70411849      71.32903253       0.46542393  T       0.00000000       0.00000000       0.00000000
W       10.40420934      73.58152792       1.36834263  T       0.00000000       0.00000000       0.00000000
W       13.00518451      73.58152787       2.28741932  T       0.00000000       0.00000000       0.00000000
W       11.70526919      75.83402100       3.19038238  T       0.00000000       0.00000000       0.00000000
W       13.00633958      78.08651223       2.25300360  T       0.00000000       0.00000000       0.00000000
W       11.70636333      80.33900366       3.15693856  T       0.00000000       0.00000000       0.00000000
W       13.00740093      82.59149584       2.21914621  T       0.00000000       0.00000000       0.00000000
W       11.70734177      84.84399161       3.12420043  T       0.00000000       0.00000000       0.00000000
W       13.00831448      87.09649377       2.18622392  T       0.00000000       0.00000000       0.00000000
W       20.80225891      42.04713370      -0.22004844  T       0.00000000       0.00000000       0.00000000
W       19.50188029      44.29945573       0.67979055  T       0.00000000       0.00000000       0.00000000
W       18.20157312      46.55181709      -1.17906351  T       0.00000000       0.00000000       0.00000000
W       20.80244337      46.55187419      -0.25044584  T       0.00000000       0.00000000       0.00000000
W       16.90133639      48.80421363      -0.27906722  T       0.00000000       0.00000000       0.00000000
W       19.50218457      48.80425123       0.64869336  T       0.00000000       0.00000000       0.00000000
W       18.20200008      51.05666321      -1.21072479  T       0.00000000       0.00000000       0.00000000
W       20.80283344      51.05669246      -0.28318315  T       0.00000000       0.00000000       0.00000000
W       15.60116649      51.05664023       0.62112212  T       0.00000000       0.00000000       0.00000000
W       14.30105743      53.30909134      -1.23715710  T       0.00000000       0.00000000       0.00000000
W       16.90188418      53.30910404      -0.31115286  T       0.00000000       0.00000000       0.00000000
W       19.50270704      53.30912049       0.61543412  T       0.00000000       0.00000000       0.00000000
W       18.20264962      55.56157538      -1.24434734  T       0.00000000       0.00000000       0.00000000
W       20.80346437      55.56158611      -0.31813868  T       0.00000000       0.00000000       0.00000000
W       15.60182864      55.56156736       0.58875247  T       0.00000000       0.00000000       0.00000000
W       14.30182336      57.81404710      -1.26967317  T       0.00000000       0.00000000       0.00000000
W       16.90265036      57.81405011      -0.34498191  T       0.00000000       0.00000000       0.00000000
W       19.50346923      57.81405438       0.58019683  T       0.00000000       0.00000000       0.00000000
W       18.20352783      60.06653915      -1.27969238  T       0.00000000       0.00000000       0.00000000
W       20.80434938      60.06654069      -0.35506254  T       0.00000000       0.00000000       0.00000000
W       15.60269680      60.06653826       0.55486810  T       0.00000000       0.00000000       0.00000000
W       14.30277574      62.31903444      -1.30347057  T       0.00000000       0.00000000       0.00000000
W       16.90362526      62.31903395      -0.38027018  T       0.00000000       0.00000000       0.00000000
W       19.50446566      62.31903361       0.54328899  T       0.00000000       0.00000000       0.00000000
W       18.20461126      64.57153292      -1.31640735  T       0.00000000       0.00000000       0.00000000
W       20.80511059      64.57147087      -0.39355127  F       0.00001297       0.00001133       0.00000316
W       15.60374649      64.57153369       0.51978823  T       0.00000000       0.00000000       0.00000000
W       14.30387729      66.82403471      -1.33820585  T       0.00000000       0.00000000       0.00000000
W       16.90476964      66.82403417      -0.41663326  T       0.00000000       0.00000000       0.00000000
W       19.50565559      66.82403356       0.50514184  T       0.00000000       0.00000000       0.00000000
W       18.20584336      69.07653427      -1.35403535  T       0.00000000       0.00000000       0.00000000
W       20.80637771      69.07649587      -0.43311628  F       0.00002564       0.00001478      -0.00000057
W       15.60492595      69.07653451       0.48391605  T       0.00000000       0.00000000       0.00000000
W       14.30506760      71.32903252      -1.37346909  T       0.00000000       0.00000000       0.00000000
W       16.90601584      71.32903250      -0.45360392  T       0.00000000       0.00000000       0.00000000
W       19.50696307      71.32903249       0.46629075  T       0.00000000       0.00000000       0.00000000
W       18.20713997      73.58152775       1.36668992  T       0.00000000       0.00000000       0.00000000
W       20.80774292      73.58152637       2.28561339  F       0.00002950       0.00000864      -0.00000102
W       15.60616131      73.58152782       3.20644835  T       0.00000000       0.00000000       0.00000000
W       14.30627115      75.83402071       1.34992231  T       0.00000000       0.00000000       0.00000000
W       16.90727729      75.83402039       2.26806816  T       0.00000000       0.00000000       0.00000000
W       19.50828823      75.83402002       3.18606793  T       0.00000000       0.00000000       0.00000000
W       18.20840404      78.08651094       1.32887059  T       0.00000000       0.00000000       0.00000000
W       20.80909244      78.08654167       2.24583203  F       0.00002098       0.00000622       0.00000098
W       15.60736850      78.08651162       3.17041058  T       0.00000000       0.00000000       0.00000000
W       14.30741008      80.33900294       1.31495921  T       0.00000000       0.00000000       0.00000000
W       16.90846446      80.33900221       2.23144314  T       0.00000000       0.00000000       0.00000000
W       19.50952744      80.33900148       3.14761761  T       0.00000000       0.00000000       0.00000000
W       18.20954504      82.59149541       1.29179005  T       0.00000000       0.00000000       0.00000000
W       20.81063117      82.59149560       2.20688924  T       0.00000000       0.00000000       0.00000000
W       15.60846861      82.59149552       3.13501302  T       0.00000000       0.00000000       0.00000000
W       14.30841771      84.84399234       1.28080147  T       0.00000000       0.00000000       0.00000000
W       16.90950188      84.84399361       2.19574265  T       0.00000000       0.00000000       0.00000000
W       19.51059492      84.84399564       3.11023542  T       0.00000000       0.00000000       0.00000000
W       18.21049605      87.09650213       1.25593569  T       0.00000000       0.00000000       0.00000000
W       20.81159829      87.09650884       2.16937983  T       0.00000000       0.00000000       0.00000000
W       15.60940151      87.09649727       3.10068316  T       0.00000000       0.00000000       0.00000000
W       14.30924848      89.34900712       1.24781777  T       0.00000000       0.00000000       0.00000000
W       16.91034022      89.34901577       2.16138237  T       0.00000000       0.00000000       0.00000000
W       19.51143754      89.34902720       3.07439172  T       0.00000000       0.00000000       0.00000000
W       18.21122250      91.60155384       1.22169790  T       0.00000000       0.00000000       0.00000000
W       20.81231397      91.60157584       2.13372367  T       0.00000000       0.00000000       0.00000000
W       15.61013346      91.60153677       3.06777084  T       0.00000000       0.00000000       0.00000000
W       16.91096026      93.85408840       2.12868190  T       0.00000000       0.00000000       0.00000000
W       19.51203863      93.85411799       3.04043736  T       0.00000000       0.00000000       0.00000000
W       18.21172146      96.10666787       1.18935445  T       0.00000000       0.00000000       0.00000000
W       20.81278115      96.10671480       2.10021795  T       0.00000000       0.00000000       0.00000000
W       15.61065737      96.10663023       3.03653407  T       0.00000000       0.00000000       0.00000000
W       16.91136913      98.35922442       2.09785740  T       0.00000000       0.00000000       0.00000000
W       19.51241194      98.35928080       3.00859747  T       0.00000000       0.00000000       0.00000000
W       18.21201383     100.61185222       1.15907160  T       0.00000000       0.00000000       0.00000000
W       20.81302923     100.61193209       2.06902582  T       0.00000000       0.00000000       0.00000000
W       19.51259061     102.86451747       2.97898186  T       0.00000000       0.00000000       0.00000000
W       20.81310101     105.11722282       2.04019623  T       0.00000000       0.00000000       0.00000000
W       27.30508833      30.78615402       0.79611916  T       0.00000000       0.00000000       0.00000000
W       26.00442025      33.03827078      -1.06183163  T       0.00000000       0.00000000       0.00000000
W       28.60550722      33.03853358      -0.12900977  T       0.00000000       0.00000000       0.00000000
W       24.70379501      35.29042390      -0.16137892  T       0.00000000       0.00000000       0.00000000
W       27.30484463      35.29064646       0.77089468  T       0.00000000       0.00000000       0.00000000
W       26.00423174      37.54280038      -1.08826673  T       0.00000000       0.00000000       0.00000000
W       28.60527035      37.54301691      -0.15569456  T       0.00000000       0.00000000       0.00000000
W       23.40322143      37.54261746       0.73880989  T       0.00000000       0.00000000       0.00000000
W       22.10270733      39.79485387      -1.11992684  T       0.00000000       0.00000000       0.00000000
W       24.70367814      39.79499928      -0.18895275  T       0.00000000       0.00000000       0.00000000
W       27.30467380      39.79517352       0.74292202  T       0.00000000       0.00000000       0.00000000
W       26.00414536      42.04738008      -1.11743893  T       0.00000000       0.00000000       0.00000000
W       28.60512371      42.04754401      -0.18536442  T       0.00000000       0.00000000       0.00000000
W       23.40319197      42.04724505       0.71018614  T       0.00000000       0.00000000       0.00000000
W       22.10277927      44.29953746      -1.14949622  T       0.00000000       0.00000000       0.00000000
W       24.70369334      44.29963770      -0.21921684  T       0.00000000       0.00000000       0.00000000
W       27.30462684      44.29976096       0.71199195  T       0.00000000       0.00000000       0.00000000
W       26.00421640      46.55203321      -1.14949837  T       0.00000000       0.00000000       0.00000000
W       28.60471786      46.55188973      -0.21823348  F       0.00003068       0.00001704      -0.00000058
W       23.40332323      46.55194503       0.67895501  T       0.00000000       0.00000000       0.00000000
W       22.10303712      48.80429843      -1.18155530  T       0.00000000       0.00000000       0.00000000
W       24.70389685      48.80435792      -0.25225591  T       0.00000000       0.00000000       0.00000000
W       27.30434298      48.80420536       0.67796699  F       0.00003012       0.00001797       0.00000057
W       26.00407813      51.05657914      -1.18449968  F       0.00002314       0.00001634       0.00000167
W       28.60453376      51.05642375      -0.25441006  F       0.00001173       0.00001429       0.00000260
W       23.40366841      51.05672983       0.64510087  T       0.00000000       0.00000000       0.00000000
W       22.10352696      53.30914189      -1.21604989  T       0.00000000       0.00000000       0.00000000
W       24.70392611      53.30900184      -0.28804002  F       0.00001801       0.00001809       0.00000212
W       27.30435294      53.30884252       0.64083006  F       0.00000508       0.00001371       0.00000396
W       26.00432079      55.56130648      -1.22237164  F       0.00001625       0.00001983       0.00000333
W       28.60468178      55.56113951      -0.29386267  F      -0.00001812      -0.00000137       0.00000629
W       23.40391045      55.56146990       0.60873597  F       0.00002593       0.00002364       0.00000105
W       22.10427967      57.81406039      -1.25279852  T       0.00000000       0.00000000       0.00000000
W       24.70447927      57.81383672      -0.32641251  F       0.00003421       0.00003049       0.00000101
W       27.30477117      57.81366894       0.60073356  F       0.00000352       0.00001089       0.00000550
W       26.00497376      60.06625054      -1.26284052  F       0.00001941       0.00002958       0.00000548
W       28.60525318      60.06607472      -0.33633827  F      -0.00000612       0.00001477       0.00001325
W       23.40466470      60.06642021       0.57010533  F       0.00003928       0.00002399       0.00000055
W       22.10484923      62.31895202      -1.29145525  F       0.00002592       0.00001530       0.00000276
W       24.70523037      62.31883318      -0.36699035  F       0.00001172       0.00003539       0.00000813
W       27.30554739      62.31868210       0.55804405  F      -0.00001846       0.00002893       0.00001456
W       26.00591935      64.57128071      -1.30545105  F      -0.00003009       0.00003033       0.00001437
W       28.60622973      64.57115788      -0.38133165  F      -0.00000397       0.00002674       0.00002048
W       23.40555238      64.57138502       0.52965292  F       0.00000202       0.00002804       0.00000817
W       22.10597913      66.82393963      -1.33156754  F       0.00001320       0.00002128       0.00000322
W       24.70636200      66.82386356      -0.40925696  F      -0.00001706       0.00002419       0.00001062
W       27.30671499      66.82378070       0.51337182  F      -0.00003146       0.00002201       0.00001983
W       26.00723940      69.07638261      -1.34952468  F      -0.00002846       0.00002079       0.00001548
W       28.60760350      69.07632694      -0.42806542  F       0.00001998       0.00002019       0.00002265
W       23.40683792      69.07643616       0.48795521  F       0.00001187       0.00002237       0.00000463
W       22.10733730      71.32899448      -1.37249809  F       0.00002854       0.00001893       0.00000048
W       24.70777517      71.32896249      -0.45249788  F      -0.00000403       0.00002414       0.00000891
W       27.30819649      71.32893675       0.46754366  F      -0.00001641       0.00002169       0.00002012
W       26.00876474      73.58151428       1.36451239  F      -0.00002048       0.00002705       0.00001454
W       28.60922621      73.58152243       2.28318706  F       0.00002958       0.00001855       0.00002167
W       23.40827853      73.58151778       3.20446857  F       0.00001813       0.00002398       0.00000373
W       22.10875148      75.83404442       1.34518198  F       0.00002286       0.00001591       0.00000153
W       24.70928751      75.83405926       2.26284313  F      -0.00000406       0.00002678       0.00000831
W       27.30981378      75.83409014       3.18026545  F      -0.00001636       0.00002529       0.00001811
W       26.01033065      78.08662099       1.32011248  F      -0.00001754       0.00002527       0.00001180
W       28.61090195      78.08669224       2.23605794  F       0.00001360       0.00001685       0.00001837
W       23.40973839      78.08657005       3.16250099  F       0.00001531       0.00001810       0.00000443
W       22.11015276      80.33904260       1.30471604  F       0.00002597       0.00000883       0.00000055
W       24.71078181      80.33911856       2.22013785  F       0.00000935       0.00001797       0.00000491
W       27.31139640      80.33921041       3.13507043  F      -0.00001644       0.00002293       0.00001312
W       26.01180081      82.59170609       1.27689350  F      -0.00000498       0.00001735       0.00000617
W       28.61245033      82.59182807       2.19033374  F      -0.00000771       0.00001515       0.00001296
W       23.41116673      82.59161099       3.12152876  F       0.00001993       0.00000512       0.00000059
W       22.11135660      84.84407695       1.26549359  F       0.00001352      -0.00000439       0.00000112
W       24.71209003      84.84417893       2.17888473  F       0.00000708       0.00000214       0.00000379
W       27.31278672      84.84430603       3.09159072  F      -0.00001623       0.00000807       0.00000810
W       26.01303541      87.09675433       1.23560203  F       0.00000843      -0.00000923       0.00000575
W       28.61374498      87.09693484       2.14688806  F      -0.00000789      -0.00000820       0.00000814
W       23.41230422      87.09661797       3.08221722  F       0.00001596      -0.00000353       0.00000231
W       22.11253995      89.34904232       1.22803591  T       0.00000000       0.00000000       0.00000000
W       24.71322221      89.34919028       2.13970155  F       0.00002958      -0.00001041       0.00000186
W       27.31393971      89.34937312       3.05052885  F       0.00002455      -0.00002331       0.00000520
W       26.01406983      91.60180320       1.19679034  F       0.00004286      -0.00001985       0.00000104
W       28.61476952      91.60204080       2.10633708  F       0.00004090      -0.00003137       0.00000334
W       23.41340647      91.60160431       3.04502933  T       0.00000000       0.00000000       0.00000000
W       22.11311513      93.85415553       1.19275240  T       0.00000000       0.00000000       0.00000000
W       24.71418737      93.85420334       2.10299904  T       0.00000000       0.00000000       0.00000000
W       27.31483114      93.85446288       3.01234098  F       0.00005056      -0.00002680       0.00000044
W       26.01487603      96.10684741       1.16079055  T       0.00000000       0.00000000       0.00000000
W       28.61549844      96.10717450       2.06902138  F       0.00005243      -0.00003023      -0.00000000
W       23.41383380      96.10677356       3.01030685  T       0.00000000       0.00000000       0.00000000
W       22.11344549      98.35935032       1.15986046  T       0.00000000       0.00000000       0.00000000
W       24.71446636      98.35943634       2.06902379  T       0.00000000       0.00000000       0.00000000
W       27.31547033      98.35954308       2.97725477  T       0.00000000       0.00000000       0.00000000
W       26.01501307     100.61214868       1.12774086  T       0.00000000       0.00000000       0.00000000
W       28.61597278     100.61229467       2.03504656  T       0.00000000       0.00000000       0.00000000
W       23.41403031     100.61202953       2.97818926  T       0.00000000       0.00000000       0.00000000
W       22.11357366     102.86462545       1.12945427  T       0.00000000       0.00000000       0.00000000
W       24.71453755     102.86475577       2.03783199  T       0.00000000       0.00000000       0.00000000
W       27.31547799     102.86491323       2.94529568  T       0.00000000       0.00000000       0.00000000
W       26.01497219     105.11753035       1.09761301  T       0.00000000       0.00000000       0.00000000
W       28.61586848     105.11773005       2.00432501  T       0.00000000       0.00000000       0.00000000
W       23.41404828     105.11736302       2.94869758  T       0.00000000       0.00000000       0.00000000
W       22.11354877     107.36996944       1.10151990  T       0.00000000       0.00000000       0.00000000
W       24.71445858     107.37014511       2.00937061  T       0.00000000       0.00000000       0.00000000
W       27.31534176     107.37035234       2.91635311  T       0.00000000       0.00000000       0.00000000
W       26.01481199     109.62297007       1.07028232  T       0.00000000       0.00000000       0.00000000
W       28.61565569     109.62321859       1.97666946  T       0.00000000       0.00000000       0.00000000
W       27.31511730     111.87583443       2.89023620  T       0.00000000       0.00000000       0.00000000
W       28.61538400     114.12873306       1.95183100  T       0.00000000       0.00000000       0.00000000
W       36.40966562      24.03079690      -0.03938298  T       0.00000000       0.00000000       0.00000000
W       32.50769039      26.28237794      -0.07262837  T       0.00000000       0.00000000       0.00000000
W       35.10889007      26.28278911       0.86223015  T       0.00000000       0.00000000       0.00000000
W       33.80811873      28.53478702      -0.99551799  T       0.00000000       0.00000000       0.00000000
W       36.40932563      28.53521104      -0.06004483  T       0.00000000       0.00000000       0.00000000
W       31.20694017      28.53440679       0.82864985  T       0.00000000       0.00000000       0.00000000
W       29.90620918      30.78645604      -1.02931575  T       0.00000000       0.00000000       0.00000000
W       32.50736039      30.78679982      -0.09512536  T       0.00000000       0.00000000       0.00000000
W       35.10854304      30.78718897       0.84001202  T       0.00000000       0.00000000       0.00000000
W       33.80777666      33.03918508      -1.01929986  T       0.00000000       0.00000000       0.00000000
W       36.40896292      33.03958296      -0.08354964  T       0.00000000       0.00000000       0.00000000
W       31.20662527      33.03883677       0.80472343  T       0.00000000       0.00000000       0.00000000
W       29.90592467      35.29090660      -1.05464485  T       0.00000000       0.00000000       0.00000000
W       32.50703841      35.29120982      -0.12045772  T       0.00000000       0.00000000       0.00000000
W       35.10818876      35.29156181       0.81480036  T       0.00000000       0.00000000       0.00000000
W       33.80744884      37.54357471      -1.04619767  T       0.00000000       0.00000000       0.00000000
W       36.40824204      37.54356118      -0.11037037  F       0.00004059       0.00002211      -0.00000055
W       31.20634135      37.54327288       0.77787668  T       0.00000000       0.00000000       0.00000000
W       29.90569887      39.79538233      -1.08294565  T       0.00000000       0.00000000       0.00000000
W       32.50646375      39.79538336      -0.14900066  F       0.00003358       0.00001068      -0.00000105
W       35.10735491      39.79552549       0.78614604  F       0.00004373       0.00001442      -0.00000102
W       33.80652742      42.04748652      -1.07662862  F       0.00002552       0.00000419      -0.00000334
W       36.40735559      42.04752825      -0.14100325  F       0.00001146      -0.00000235      -0.00000550
W       31.20577719      42.04746413       0.74777444  F       0.00002480       0.00000657      -0.00000212
W       29.90519812      44.29964030      -1.11449914  F       0.00002581       0.00001184      -0.00000168
W       32.50585269      44.29957953      -0.18109855  F       0.00001458      -0.00000247      -0.00000396
W       35.10656338      44.29954873       0.75359180  F      -0.00001000      -0.00001501      -0.00000630
W       33.80590135      46.55168238      -1.11096736  F      -0.00001311      -0.00001841      -0.00000494
W       36.40656926      46.55160461      -0.17593467  F       0.00000137      -0.00000309      -0.00000849
W       31.20529146      46.55177869       0.71414104  F       0.00001835       0.00000295      -0.00000261
W       29.90484880      48.80406438      -1.14950092  F       0.00001886       0.00001082      -0.00000000
W       32.50537225      48.80392205      -0.21705090  F      -0.00001160      -0.00001169      -0.00000189
W       35.10593381      48.80378703       0.71674802  F       0.00000867       0.00000149      -0.00000461
W       33.80545691      51.05608148      -1.14950402  F       0.00001115       0.00000631      -0.00000001
W       36.40595778      51.05590554      -0.21560257  F       0.00012501       0.00007683      -0.00000236
W       31.20498741      51.05625498       0.67677881  F      -0.00001589      -0.00000435       0.00000188
W       29.90475546      53.30866619      -1.18803696  F      -0.00002254      -0.00000233       0.00000494
W       32.50515143      53.30847490      -0.25702318  F       0.00000563       0.00000652       0.00000460
W       35.10555515      53.30826927       0.67532360  F       0.00012914       0.00006955       0.00000234
W       33.80535101      55.56073606      -1.19236274  F       0.00012254       0.00005654       0.00000694
W       36.40569129      55.56050426      -0.26025715  F       0.00023170       0.00011158       0.00000421
W       31.20502224      55.56094959       0.63566023  F      -0.00000209       0.00000246       0.00000848
W       29.90506469      57.81348826      -1.22999187  F      -0.00000426       0.00000275       0.00001136
W       32.50534190      57.81328346      -0.30096223  F       0.00010687       0.00004203       0.00001137
W       35.10561212      57.81305413       0.62927686  F       0.00023589       0.00009332       0.00000812
W       33.80574129      60.06567739      -1.23937073  F       0.00022975       0.00007508       0.00001169
W       36.40596840      60.06544235      -0.30981440  F       0.00019943       0.00006111       0.00001162
W       31.20550830      60.06588719       0.59100950  F       0.00008062       0.00003257       0.00001532
W       29.90581671      62.31852073      -1.27498854  F       0.00004090       0.00002946       0.00001859
W       32.50604727      62.31834247      -0.34849516  F       0.00020352       0.00005782       0.00001518
W       35.10625706      62.31814120       0.57895161  F       0.00023482       0.00005587       0.00001345
W       33.80671481      64.57086307      -1.28995276  F       0.00025667       0.00004694       0.00001441
W       36.40691782      64.57067948      -0.36368919  F       0.00009917      -0.00000053       0.00002105
W       31.20648860      64.57101980       0.54337227  F       0.00015180       0.00004148       0.00001881
W       29.90702149      66.82368603      -1.32234352  F       0.00008338       0.00002754       0.00002191
W       32.50728934      66.82357802      -0.39885950  F       0.00024608       0.00003367       0.00001598
W       35.10753456      66.82345096       0.52519131  F       0.00017714       0.00000474       0.00001863
W       33.80823331      69.07619390      -1.34307657  F       0.00024186       0.00000302       0.00001531
W       36.40851595      69.07610219      -0.42069167  F       0.00003347      -0.00003023       0.00002742
W       31.20792919      69.07626552       0.49364365  F       0.00019340       0.00002055       0.00001877
W       29.90858809      71.32891471      -1.37108657  F       0.00011054       0.00001470       0.00002155
W       32.50895845      71.32889223      -0.45091031  F       0.00025547      -0.00000272       0.00001461
W       35.10932159      71.32886142       0.46935539  F       0.00014276      -0.00002875       0.00002000
W       33.81010249      73.58156031       1.36141888  F       0.00023582      -0.00003278       0.00001317
W       36.41053846      73.58157439       2.27964981  F       0.00002553      -0.00003731       0.00002707
W       31.20966564      73.58153991       3.20174183  F       0.00019926      -0.00000400       0.00001712
W       29.91032139      75.83413807       1.33867992  F       0.00009954       0.00000442       0.00001967
W       32.51082328      75.83419895       2.25549581  F       0.00024787      -0.00003330       0.00001225
W       35.11133831      75.83426482       3.17190676  F       0.00015838      -0.00005080       0.00001556
W       33.81203406      78.08688986       1.30769514  F       0.00024572      -0.00006144       0.00000915
W       36.41262745      78.08700521       2.22189291  F       0.00007228      -0.00004638       0.00001934
W       31.21146252      78.08678324       3.15152911  F       0.00016805      -0.00002075       0.00001519
W       29.91200731      80.33932249       1.29069224  F       0.00005874       0.00000093       0.00001633
W       32.51262150      80.33945900       2.20435623  F       0.00021528      -0.00005169       0.00001049
W       35.11325924      80.33961464       3.11718511  F       0.00020978      -0.00007716       0.00000829
W       33.81376288      82.59216970       1.25602967  F       0.00023672      -0.00008132       0.00000669
W       36.41445296      82.59238102       2.16667763  F       0.00016513      -0.00007735       0.00000840
W       31.21310096      82.59198349       3.10300651  F       0.00010397      -0.00002319       0.00001288
W       29.91347272      84.84447347       1.24475000  F       0.00001071      -0.00000217       0.00001134
W       32.51415408      84.84468079       2.15568158  F       0.00014206      -0.00005204       0.00000896
W       35.11484876      84.84492407       3.06546917  F       0.00024012      -0.00010383       0.00000412