1979
Lattice="140.45173612753337 0.0 0.0 0.0 144.15972917578966 0.0 0.0 0.0 2.758732640144512" Properties=species:S:1:pos:R:3:fix_mask:L:1:forces:R:3 energy=-18679.749964266128 pbc="T T T"
W       13.00099067      55.56156122      -0.33637425  T       0.00000000       0.00000000       0.00000000
W       13.00184886      60.06653771      -0.36890483  T       0.00000000       0.00000000       0.00000000
W       11.70191135      62.31903491       0.53237464  T       0.00000000       0.00000000       0.00000000
W       13.00286867      64.57153436      -0.40248451  T       0.00000000       0.00000000       0.00000000
W       11.70297563      66.82403517       0.49913012  T       0.00000000       0.00000000       0.00000000
W       10.40307857      69.07653488      -1.35733326  T       0.00000000       0.00000000       0.00000000
W       13.00400270      69.07653470      -0.43675604  T       0.00000000       0.00000000       0.00000000
W       11.70411795      71.32903253       0.46542394  T       0.00000000       0.00000000       0.00000000
W       10.40421039      73.58152792       1.36834261  T       0.00000000       0.00000000       0.00000000
W       13.00518562      73.58152787       2.28741930  T       0.00000000       0.00000000       0.00000000
W       11.70527187      75.83402098       3.19038231  T       0.00000000       0.00000000       0.00000000
W       13.00634392      78.08651219       2.25300350  T       0.00000000       0.00000000       0.00000000
W       11.70636907      80.33900359       3.15693843  T       0.00000000       0.00000000       0.00000000
W       13.00740823      82.59149573       2.21914606  T       0.00000000       0.00000000       0.00000000
W       11.70735025      84.84399148       3.12420025  T       0.00000000       0.00000000       0.00000000
W       13.00832433      87.09649363       2.18622374  T       0.00000000       0.00000000       0.00000000
W       20.80224392      42.04713482      -0.22004853  T       0.00000000       0.00000000       0.00000000
W       19.50186556      44.29945640       0.67979051  T       0.00000000       0.00000000       0.00000000
W       18.20155884      46.55181745      -1.17906349  T       0.00000000       0.00000000       0.00000000
W       20.80242885      46.55187468      -0.25044585  T       0.00000000       0.00000000       0.00000000
W       16.90132277      48.80421375      -0.27906716  T       0.00000000       0.00000000       0.00000000
W       19.50217065      48.80425144       0.64869340  T       0.00000000       0.00000000       0.00000000
W       18.20198696      51.05666324      -1.21072470  T       0.00000000       0.00000000       0.00000000
W       20.80281998      51.05669254      -0.28318308  T       0.00000000       0.00000000       0.00000000
W       15.60115372      51.05664021       0.62112222  T       0.00000000       0.00000000       0.00000000
W       14.30104567      53.30909124      -1.23715697  T       0.00000000       0.00000000       0.00000000
W       16.90187206      53.30910395      -0.31115274  T       0.00000000       0.00000000       0.00000000
W       19.50269455      53.30912044       0.61543422  T       0.00000000       0.00000000       0.00000000
W       18.20263829      55.56157526      -1.24434720  T       0.00000000       0.00000000       0.00000000
W       20.80345265      55.56158600      -0.31813856  T       0.00000000       0.00000000       0.00000000
W       15.60181769      55.56156723       0.58875261  T       0.00000000       0.00000000       0.00000000
W       14.30181372      57.81404696      -1.26967302  T       0.00000000       0.00000000       0.00000000
W       16.90264036      57.81404996      -0.34498176  T       0.00000000       0.00000000       0.00000000
W       19.50345885      57.81405424       0.58019697  T       0.00000000       0.00000000       0.00000000
W       18.20351894      60.06653901      -1.27969224  T       0.00000000       0.00000000       0.00000000
W       20.80434011      60.06654056      -0.35506239  T       0.00000000       0.00000000       0.00000000
W       15.60268827      60.06653813       0.55486825  T       0.00000000       0.00000000       0.00000000
W       14.30276876      62.31903434      -1.30347043  T       0.00000000       0.00000000       0.00000000
W       16.90361797      62.31903385      -0.38027004  T       0.00000000       0.00000000       0.00000000
W       19.50445805      62.31903350       0.54328913  T       0.00000000       0.00000000       0.00000000
W       18.20460539      64.57153285      -1.31640723  T       0.00000000       0.00000000       0.00000000
W       20.80502095      64.57146060      -0.39352841  F      -0.00002661       0.00000597       0.00000725
W       15.60374089      64.57153363       0.51978834  T       0.00000000       0.00000000       0.00000000
W       14.30387339      66.82403468      -1.33820576  T       0.00000000       0.00000000       0.00000000
W       16.90476555      66.82403413      -0.41663317  T       0.00000000       0.00000000       0.00000000
W       19.50565131      66.82403351       0.50514193  T       0.00000000       0.00000000       0.00000000
W       18.20584094      69.07653426      -1.35403529  T       0.00000000       0.00000000       0.00000000
W       20.80628526      69.07649172      -0.43308912  F      -0.00000714       0.00001352       0.00000273
W       15.60492365      69.07653449       0.48391610  T       0.00000000       0.00000000       0.00000000
W       14.30506703      71.32903252      -1.37346908  T       0.00000000       0.00000000       0.00000000
W       16.90601524      71.32903250      -0.45360390  T       0.00000000       0.00000000       0.00000000
W       19.50696244      71.32903248       0.46629077  T       0.00000000       0.00000000       0.00000000
W       18.20714119      73.58152775       1.36668989  T       0.00000000       0.00000000       0.00000000
W       20.80765288      73.58153070       2.28564111  F       0.00000108       0.00000990       0.00000229
W       15.60616247      73.58152781       3.20644832  T       0.00000000       0.00000000       0.00000000
W       14.30627395      75.83402069       1.34992224  T       0.00000000       0.00000000       0.00000000
W       16.90728023      75.83402037       2.26806809  T       0.00000000       0.00000000       0.00000000
W       19.50829132      75.83402000       3.18606785  T       0.00000000       0.00000000       0.00000000
W       18.20840879      78.08651089       1.32887048  T       0.00000000       0.00000000       0.00000000
W       20.80900998      78.08655266       2.24585648  F      -0.00000701       0.00001049       0.00000474
W       15.60737304      78.08651157       3.17041047  T       0.00000000       0.00000000       0.00000000
W       14.30741607      80.33900286       1.31495907  T       0.00000000       0.00000000       0.00000000
W       16.90847073      80.33900213       2.23144300  T       0.00000000       0.00000000       0.00000000
W       19.50953400      80.33900139       3.14761747  T       0.00000000       0.00000000       0.00000000
W       18.20955299      82.59149529       1.29178989  T       0.00000000       0.00000000       0.00000000
W       20.81063947      82.59149548       2.20688907  T       0.00000000       0.00000000       0.00000000
W       15.60847622      82.59149541       3.13501286  T       0.00000000       0.00000000       0.00000000
W       14.30842651      84.84399221       1.28080129  T       0.00000000       0.00000000       0.00000000
W       16.90951103      84.84399348       2.19574247  T       0.00000000       0.00000000       0.00000000
W       19.51060445      84.84399550       3.11023523  T       0.00000000       0.00000000       0.00000000
W       18.21050663      87.09650199       1.25593550  T       0.00000000       0.00000000       0.00000000
W       20.81160927      87.09650871       2.16937964  T       0.00000000       0.00000000       0.00000000
W       15.60941172      87.09649713       3.10068297  T       0.00000000       0.00000000       0.00000000
W       14.30925959      89.34900699       1.24781758  T       0.00000000       0.00000000       0.00000000
W       16.91035170      89.34901565       2.16138219  T       0.00000000       0.00000000       0.00000000
W       19.51144941      89.34902710       3.07439153  T       0.00000000       0.00000000       0.00000000
W       18.21123510      91.60155380       1.22169773  T       0.00000000       0.00000000       0.00000000
W       20.81232693      91.60157584       2.13372351  T       0.00000000       0.00000000       0.00000000
W       15.61014570      91.60153669       3.06777066  T       0.00000000       0.00000000       0.00000000
W       16.91097345      93.85408843       2.12868174  T       0.00000000       0.00000000       0.00000000
W       19.51205215      93.85411809       3.04043721  T       0.00000000       0.00000000       0.00000000
W       18.21173542      96.10666809       1.18935432  T       0.00000000       0.00000000       0.00000000
W       20.81279538      96.10671513       2.10021783  T       0.00000000       0.00000000       0.00000000
W       15.61067104      96.10663037       3.03653393  T       0.00000000       0.00000000       0.00000000
W       16.91138343      98.35922479       2.09785729  T       0.00000000       0.00000000       0.00000000
W       19.51242647      98.35928130       3.00859737  T       0.00000000       0.00000000       0.00000000
W       18.21202857     100.61185290       1.15907152  T       0.00000000       0.00000000       0.00000000
W       20.81304412     100.61193297       2.06902576  T       0.00000000       0.00000000       0.00000000
W       19.51260560     102.86451858       2.97898181  T       0.00000000       0.00000000       0.00000000
W       20.81311605     105.11722447       2.04019623  T       0.00000000       0.00000000       0.00000000
W       27.30507470      30.78615913       0.79611889  T       0.00000000       0.00000000       0.00000000
W       26.00440606      33.03827486      -1.06183188  T       0.00000000       0.00000000       0.00000000
W       28.60549342      33.03853838      -0.12901003  T       0.00000000       0.00000000       0.00000000
W       24.70378039      35.29042706      -0.16137914  T       0.00000000       0.00000000       0.00000000
W       27.30483029      35.29065022       0.77089444  T       0.00000000       0.00000000       0.00000000
W       26.00421699      37.54280322      -1.08826694  T       0.00000000       0.00000000       0.00000000
W       28.60525584      37.54302033      -0.15569479  T       0.00000000       0.00000000       0.00000000
W       23.40320652      37.54261982       0.73880970  T       0.00000000       0.00000000       0.00000000
W       22.10269228      39.79485555      -1.11992698  T       0.00000000       0.00000000       0.00000000
W       24.70366315      39.79500133      -0.18895292  T       0.00000000       0.00000000       0.00000000
W       27.30465893      39.79517604       0.74292182  T       0.00000000       0.00000000       0.00000000
W       26.00413032      42.04738183      -1.11743908  T       0.00000000       0.00000000       0.00000000
W       28.60510875      42.04754620      -0.18536461  T       0.00000000       0.00000000       0.00000000
W       23.40317693      42.04724646       0.71018602  T       0.00000000       0.00000000       0.00000000
W       22.10276439      44.29953834      -1.14949629  T       0.00000000       0.00000000       0.00000000
W       24.70367835      44.29963884      -0.21921694  T       0.00000000       0.00000000       0.00000000
W       27.30461179      44.29976241       0.71199182  T       0.00000000       0.00000000       0.00000000
W       26.00420151      46.55203409      -1.14949844  T       0.00000000       0.00000000       0.00000000
W       28.60460713      46.55183081      -0.21823678  F      -0.00000776      -0.00000707      -0.00000115
W       23.40330851      46.55194569       0.67895497  T       0.00000000       0.00000000       0.00000000
W       22.10302291      48.80429875      -1.18155529  T       0.00000000       0.00000000       0.00000000
W       24.70388238      48.80435838      -0.25225592  T       0.00000000       0.00000000       0.00000000
W       27.30422837      48.80415318       0.67797016  F      -0.00001000      -0.00000324       0.00000115
W       26.00396294      51.05653475      -1.18449055  F      -0.00002039      -0.00000273       0.00000331
W       28.60432029      51.05632651      -0.25439747  F      -0.00004375      -0.00001252       0.00000463
W       23.40365462      51.05673000       0.64510092  T       0.00000000       0.00000000       0.00000000
W       22.10351409      53.30914188      -1.21604980  T       0.00000000       0.00000000       0.00000000
W       24.70381506      53.30896543      -0.28802673  F      -0.00002770       0.00000198       0.00000439
W       27.30414278      53.30876046       0.64085357  F      -0.00005525      -0.00001219       0.00000748
W       26.00412488      55.56123854      -1.22234149  F      -0.00004188      -0.00000414       0.00000706
W       28.60436742      55.56102396      -0.29381840  F      -0.00006240      -0.00002192       0.00001212
W       23.40381429      55.56144206       0.60874940  F      -0.00001286       0.00001262       0.00000328
W       22.10426888      57.81406025      -1.25279838  T       0.00000000       0.00000000       0.00000000
W       24.70432125      57.81378886      -0.32638191  F      -0.00000743       0.00001462       0.00000412
W       27.30448122      57.81357999       0.60078880  F      -0.00003873      -0.00000716       0.00001278
W       26.00471543      60.06619108      -1.26278030  F      -0.00002372       0.00001959       0.00001365
W       28.60485455      60.06597151      -0.33625250  F      -0.00002323       0.00000968       0.00002418
W       23.40453435      60.06639714       0.57013593  F       0.00000321       0.00001776       0.00000436
W       22.10473425      62.31893817      -1.29142572  F      -0.00001634       0.00000952       0.00000751
W       24.70500282      62.31879715      -0.36692968  F      -0.00004273       0.00002948       0.00001723
W       27.30518544      62.31861254       0.55813597  F      -0.00004917       0.00002628       0.00002714
W       26.00560064      64.57123759      -1.30536032  F      -0.00007853       0.00002586       0.00002754
W       28.60576613      64.57108742      -0.38120520  F      -0.00001148       0.00002821       0.00003662
W       23.40536039      64.57136134       0.52970846  F      -0.00006026       0.00002005       0.00001664
W       22.10584130      66.82392649      -1.33152542  F      -0.00003535       0.00001496       0.00000858
W       24.70609631      66.82383992      -0.40917394  F      -0.00007344       0.00001706       0.00002289
W       27.30630756      66.82374197       0.51349382  F      -0.00005507       0.00001994       0.00003643
W       26.00689533      69.07636786      -1.34941517  F      -0.00006593       0.00001718       0.00003080
W       28.60710843      69.07630344      -0.42791261  F       0.00002197       0.00002034       0.00004201
W       23.40663029      69.07642704       0.48802286  F      -0.00004062       0.00001737       0.00001367
W       22.10719668      71.32899515      -1.37245150  F      -0.00001038       0.00001816       0.00000577
W       24.70750060      71.32896451      -0.45240602  F      -0.00004866       0.00002291       0.00002184
W       27.30777599      71.32893951       0.46767878  F      -0.00003008       0.00002144       0.00003829
W       26.00842204      73.58153397       1.36462430  F      -0.00005188       0.00002924       0.00003019
W       28.60873319      73.58155133       2.28334348  F       0.00003688       0.00001924       0.00004171
W       23.40807237      73.58152970       3.20453769  F      -0.00002769       0.00002660       0.00001292
W       22.10861762      75.83405913       1.34522602  F      -0.00001493       0.00002045       0.00000705
W       24.70902450      75.83408690       2.26292982  F      -0.00004761       0.00003196       0.00002077
W       27.30940917      75.83413419       3.18039323  F      -0.00002981       0.00002780       0.00003563
W       26.01001474      78.08666974       1.32020999  F      -0.00005101       0.00003035       0.00002570
W       28.61044230      78.08676756       2.23619422  F       0.00001830       0.00001722       0.00003625
W       23.40955124      78.08659682       3.16256019  F      -0.00002941       0.00002424       0.00001277
W       22.11004821      80.33905867       1.30474767  F      -0.00000313       0.00001305       0.00000453
W       24.71055612      80.33916226       2.22020574  F      -0.00003016       0.00002481       0.00001439
W       27.31103571      80.33928621       3.13517261  F      -0.00003488       0.00002693       0.00002735
W       26.01153758      82.59177453       1.27696443  F      -0.00004033       0.00002566       0.00001624
W       28.61205204      82.59193581       2.19043310  F      -0.00001294       0.00001603       0.00002647
W       23.41103200      82.59164741       3.12156653  F      -0.00001263       0.00001272       0.00000512
W       22.11128049      84.84409870       1.26551185  F      -0.00001252       0.00000062       0.00000398
W       24.71191360      84.84423250       2.17892743  F      -0.00003444       0.00001091       0.00001006
W       27.31249128      84.84439850       3.09165762  F      -0.00004663       0.00001268       0.00001787
W       26.01283890      87.09682128       1.23564232  F      -0.00002882      -0.00000444       0.00001240
W       28.61343012      87.09705196       2.14694502  F      -0.00002637      -0.00001060       0.00001667
W       23.41221190      87.09664658       3.08223784  F      -0.00001197       0.00000232       0.00000571
W       22.11255221      89.34904225       1.22803572  T       0.00000000       0.00000000       0.00000000
W       24.71312332      89.34922697       2.13971980  F       0.00000791      -0.00000580       0.00000486
W       27.31373328      89.34945661       3.05056106  F      -0.00000099      -0.00002286       0.00001066
W       26.01396872      91.60184923       1.19680367  F       0.00002852      -0.00001691       0.00000316
W       28.61456023      91.60214203       2.10635774  F       0.00002672      -0.00003256       0.00000681
W       23.41341980      91.60160437       3.04502917  T       0.00000000       0.00000000       0.00000000
W       22.11312898      93.85415571       1.19275226  T       0.00000000       0.00000000       0.00000000
W       24.71420152      93.85420364       2.10299891  T       0.00000000       0.00000000       0.00000000
W       27.31473098      93.85451871       3.01234796  F       0.00004158      -0.00002435       0.00000152
W       26.01489073      96.10684806       1.16079046  T       0.00000000       0.00000000       0.00000000
W       28.61540206      96.10723963       2.06902129  F       0.00004606      -0.00002659      -0.00000000
W       23.41384829      96.10677403       3.01030675  T       0.00000000       0.00000000       0.00000000
W       22.11346022      98.35935099       1.15986038  T       0.00000000       0.00000000       0.00000000
W       24.71448124      98.35943722       2.06902372  T       0.00000000       0.00000000       0.00000000
W       27.31548533      98.35954424       2.97725472  T       0.00000000       0.00000000       0.00000000
W       26.01502812     100.61215012       1.12774083  T       0.00000000       0.00000000       0.00000000
W       28.61598781     100.61229649       2.03504655  T       0.00000000       0.00000000       0.00000000
W       23.41404530     100.61203066       2.97818921  T       0.00000000       0.00000000       0.00000000
W       22.11358870     102.86462684       1.12945424  T       0.00000000       0.00000000       0.00000000
W       24.71455259     102.86475750       2.03783198  T       0.00000000       0.00000000       0.00000000
W       27.31549296     102.86491538       2.94529569  T       0.00000000       0.00000000       0.00000000
W       26.01498707     105.11753281       1.09761304  T       0.00000000       0.00000000       0.00000000
W       28.61588317     105.11773304       2.00432505  T       0.00000000       0.00000000       0.00000000
W       23.41406328     105.11736504       2.94869758  T       0.00000000       0.00000000       0.00000000
W       22.11356370     107.36997175       1.10151993  T       0.00000000       0.00000000       0.00000000
W       24.71447336     107.37014789       2.00937064  T       0.00000000       0.00000000       0.00000000
W       27.31535630     107.37035568       2.91635316  T       0.00000000       0.00000000       0.00000000
W       26.01482639     109.62297374       1.07028237  T       0.00000000       0.00000000       0.00000000
W       28.61566974     109.62322292       1.97666952  T       0.00000000       0.00000000       0.00000000
W       27.31513118     111.87583909       2.89023627  T       0.00000000       0.00000000       0.00000000
W       28.61539725     114.12873883       1.95183107  T       0.00000000       0.00000000       0.00000000
W       36.40965552      24.03080790      -0.03938317  T       0.00000000       0.00000000       0.00000000
W       32.50767875      26.28238640      -0.07262861  T       0.00000000       0.00000000       0.00000000
W       35.10887912      26.28279871       0.86222992  T       0.00000000       0.00000000       0.00000000
W       33.80810694      28.53479524      -0.99551824  T       0.00000000       0.00000000       0.00000000
W       36.40931456      28.53522043      -0.06004506  T       0.00000000       0.00000000       0.00000000
W       31.20692775      28.53441396       0.82864959  T       0.00000000       0.00000000       0.00000000
W       29.90619603      30.78646198      -1.02931602  T       0.00000000       0.00000000       0.00000000
W       32.50734780      30.78680671      -0.09512563  T       0.00000000       0.00000000       0.00000000
W       35.10853110      30.78719693       0.84001175  T       0.00000000       0.00000000       0.00000000
W       33.80776388      33.03919166      -1.01930014  T       0.00000000       0.00000000       0.00000000
W       36.40895081      33.03959064      -0.08354991  T       0.00000000       0.00000000       0.00000000
W       31.20661194      33.03884239       0.80472315  T       0.00000000       0.00000000       0.00000000
W       29.90591069      35.29091107      -1.05464511  T       0.00000000       0.00000000       0.00000000
W       32.50702488      35.29121512      -0.12045800  T       0.00000000       0.00000000       0.00000000
W       35.10817580      35.29156806       0.81480007  T       0.00000000       0.00000000       0.00000000
W       33.80743511      37.54357964      -1.04619795  T       0.00000000       0.00000000       0.00000000
W       36.40814861      37.54347402      -0.11040110  F       0.00001717      -0.00000596      -0.00000436
W       31.20632718      37.54327699       0.77787642  T       0.00000000       0.00000000       0.00000000
W       29.90568422      39.79538541      -1.08294588  T       0.00000000       0.00000000       0.00000000
W       32.50638331      39.79532821      -0.14901422  F       0.00000463      -0.00001738      -0.00000328
W       35.10722615      39.79542677       0.78611531  F       0.00000916      -0.00001364      -0.00000412
W       33.80636232      42.04736505      -1.07665890  F      -0.00002430      -0.00003410      -0.00000706
W       36.40712523      42.04733582      -0.14105862  F      -0.00002526      -0.00002981      -0.00001277
W       31.20568188      42.04740038       0.74776102  F      -0.00001201      -0.00002494      -0.00000438
W       29.90509384      44.29957697      -1.11450840  F      -0.00001247      -0.00001629      -0.00000331
W       32.50566825      44.29945279      -0.18112218  F      -0.00003802      -0.00004170      -0.00000748
W       35.10629778      44.29934849       0.75354742  F      -0.00004992      -0.00004299      -0.00001211
W       33.80560950      46.55148621      -1.11099630  F      -0.00004998      -0.00004401      -0.00000889
W       36.40618609      46.55132307      -0.17598758  F      -0.00000839      -0.00000848      -0.00001482
W       31.20509223      46.55165671       0.71412833  F      -0.00003262      -0.00003162      -0.00000462
W       29.90463949      48.80395306      -1.14950098  F      -0.00003260      -0.00001885       0.00000000
W       32.50506101      48.80373893      -0.21706096  F      -0.00004602      -0.00003330      -0.00000328
W       35.10551927      48.80352059       0.71672012  F       0.00000207      -0.00000267      -0.00000794
W       33.80502076      51.05583924      -1.14950407  F       0.00000564       0.00000315       0.00000000
W       36.40540776      51.05557235      -0.21562157  F       0.00013433       0.00008266      -0.00000443
W       31.20466496      51.05609132       0.67678876  F      -0.00005186      -0.00002332       0.00000329
W       29.90443145      53.30852587      -1.18800813  F      -0.00006321      -0.00002143       0.00000890
W       32.50470519      53.30826350      -0.25699538  F      -0.00000132       0.00000290       0.00000794
W       35.10498332      53.30797396       0.67534253  F       0.00013883       0.00007471       0.00000443
W       33.80477215      55.56048517      -1.19230778  F       0.00013240       0.00006059       0.00001301
W       36.40497398      55.56016522      -0.26020819  F       0.00025591       0.00012346       0.00000897
W       31.20457867      55.56077293       0.63571303  F      -0.00001172      -0.00000329       0.00001482
W       29.90463760      57.81334812      -1.22991912  F      -0.00001618      -0.00000435       0.00002028
W       32.50477161      57.81308032      -0.30087653  F       0.00011739       0.00004494       0.00002097
W       35.10489349      57.81277502       0.62936989  F       0.00025831       0.00010250       0.00001743
W       33.80503953      60.06545988      -1.23924256  F       0.00025035       0.00008229       0.00002501
W       36.40510451      60.06514908      -0.30967111  F       0.00026551       0.00008518       0.00002197
W       31.20496149      60.06573215       0.59111803  F       0.00009093       0.00003542       0.00002777
W       29.90530628      62.31841095      -1.27486634  F       0.00004603       0.00003265       0.00003326
W       32.50537884      62.31818424      -0.34834330  F       0.00022289       0.00006413       0.00003167
W       35.10542158      62.31792386       0.57913205  F       0.00028633       0.00007128       0.00002840
W       33.80592557      64.57071601      -1.28975105  F       0.00029388       0.00005630       0.00003346
W       36.40595063      64.57047991      -0.36344819  F       0.00020807       0.00002454       0.00003231
W       31.20586735      64.57091509       0.54353554  F       0.00016923       0.00004671       0.00003740
W       29.90645881      66.82362662      -1.32218048  F       0.00009582       0.00003032       0.00004149
W       32.50656059      66.82349218      -0.39865208  F       0.00027406       0.00003927       0.00003775
W       35.10662855      66.82333153       0.52544691  F       0.00025721       0.00001768       0.00003562
W       33.80740269      69.07614178      -1.34282496  F       0.00029424       0.00000856       0.00003711
W       36.40750206      69.07602837      -0.42038297  F       0.00015969      -0.00002003       0.00003738
W       31.20727175      69.07622978       0.49384327  F       0.00021756       0.00002345       0.00004137
W       29.90801010      71.32891718      -1.37090508  F       0.00013038       0.00001565       0.00004343
W       32.50821306      71.32889301      -0.45067723  F       0.00029174      -0.00000070       0.00003862
W       35.10839813      71.32885845       0.46964638  F       0.00023340      -0.00002756       0.00003735
W       33.80927846      73.58161044       1.36167789  F       0.00029242      -0.00003470       0.00003556
W       36.40953510      73.58163570       2.27996893  F       0.00014775      -0.00004691       0.00003715
W       31.20901190      73.58157903       3.20194664  F       0.00022980      -0.00000388       0.00004051
W       29.90976354      75.83420166       1.33885129  F       0.00012255       0.00000362       0.00004073
W       32.51010352      75.83428501       2.25571504  F       0.00028773      -0.00003596       0.00003544
W       35.11044782      75.83437640       3.17217899  F       0.00024086      -0.00006182       0.00003340
W       33.81126005      78.08703216       1.30791613  F       0.00029712      -0.00006977       0.00003003
W       36.41168539      78.08718869       2.22216062  F       0.00017641      -0.00007038       0.00003140
W       31.21084935      78.08688959       3.15170618  F       0.00020132      -0.00002441       0.00003595
W       29.91150182      80.33943531       1.29082857  F       0.00007848      -0.00000215       0.00003355
W       32.51196444      80.33961496       2.20452749  F       0.00025549      -0.00005940       0.00002959
W       35.11244483      80.33982069       3.11739216  F       0.00027426      -0.00009428       0.00002526
W       33.81307496      82.59238023       1.25618210  F       0.00028243      -0.00009456       0.00002280
W       36.41361377      82.59265578       2.16685349  F       0.00024139      -0.00010479       0.00002081
W       31.21256022      82.59213861       3.10313303  F       0.00013416      -0.00003116       0.00002828
W       29.91304652      84.84461520       1.24483822  F       0.00001752      -0.00000788       0.00002301
W       32.51359020      84.84488093       2.15578800  F       0.00017959      -0.00006612       0.00002146
W       35.11414421      84.84519170       3.06558970  F       0.00029057      -0.00012350       0.00001621