1979
Lattice="140.45173612750182 0.0 0.0 0.0 144.15972917575726 0.0 0.0 0.0 2.7587326401438927" Properties=species:S:1:pos:R:3:fix_mask:L:1:forces:R:3 energy=-18714.60625697208 pbc="T T T"
W       13.00104750      55.56156144      -0.33637501  T       0.00000000       0.00000000       0.00000000
W       13.00189288      60.06653806      -0.36890559  T       0.00000000       0.00000000       0.00000000
W       11.70194726      62.31903521       0.53237394  T       0.00000000       0.00000000       0.00000000
W       13.00289744      64.57153457      -0.40248510  T       0.00000000       0.00000000       0.00000000
W       11.70299562      66.82403528       0.49912968  T       0.00000000       0.00000000       0.00000000
W       10.40308986      69.07653492      -1.35733352  T       0.00000000       0.00000000       0.00000000
W       13.00401449      69.07653474      -0.43675631  T       0.00000000       0.00000000       0.00000000
W       11.70412084      71.32903253       0.46542388  T       0.00000000       0.00000000       0.00000000
W       10.40420473      73.58152792       1.36834274  T       0.00000000       0.00000000       0.00000000
W       13.00517970      73.58152788       2.28741944  T       0.00000000       0.00000000       0.00000000
W       11.70525749      75.83402104       3.19038265  T       0.00000000       0.00000000       0.00000000
W       13.00632066      78.08651234       2.25300403  T       0.00000000       0.00000000       0.00000000
W       11.70633827      80.33900382       3.15693911  T       0.00000000       0.00000000       0.00000000
W       13.00736905      82.59149606       2.21914688  T       0.00000000       0.00000000       0.00000000
W       11.70730477      84.84399184       3.12420116  T       0.00000000       0.00000000       0.00000000
W       13.00827146      87.09649394       2.18622471  T       0.00000000       0.00000000       0.00000000
W       20.80232481      42.04712725      -0.22004804  T       0.00000000       0.00000000       0.00000000
W       19.50194498      44.29945137       0.67979072  T       0.00000000       0.00000000       0.00000000
W       18.20163573      46.55181435      -1.17906356  T       0.00000000       0.00000000       0.00000000
W       20.80250704      46.55187077      -0.25044579  T       0.00000000       0.00000000       0.00000000
W       16.90139606      48.80421207      -0.27906747  T       0.00000000       0.00000000       0.00000000
W       19.50224557      48.80424922       0.64869319  T       0.00000000       0.00000000       0.00000000
W       18.20205750      51.05666220      -1.21072514  T       0.00000000       0.00000000       0.00000000
W       20.80289237      51.05669110      -0.28318342  T       0.00000000       0.00000000       0.00000000
W       15.60122240      51.05663950       0.62112171  T       0.00000000       0.00000000       0.00000000
W       14.30110883      53.30909113      -1.23715764  T       0.00000000       0.00000000       0.00000000
W       16.90193717      53.30910368      -0.31115335  T       0.00000000       0.00000000       0.00000000
W       19.50276169      53.30911994       0.61543367  T       0.00000000       0.00000000       0.00000000
W       18.20269913      55.56157531      -1.24434790  T       0.00000000       0.00000000       0.00000000
W       20.80351563      55.56158590      -0.31813920  T       0.00000000       0.00000000       0.00000000
W       15.60187647      55.56156737       0.58875188  T       0.00000000       0.00000000       0.00000000
W       14.30186542      57.81404729      -1.26967380  T       0.00000000       0.00000000       0.00000000
W       16.90269402      57.81405026      -0.34498253  T       0.00000000       0.00000000       0.00000000
W       19.50351459      57.81405449       0.58019622  T       0.00000000       0.00000000       0.00000000
W       18.20356663      60.06653937      -1.27969301  T       0.00000000       0.00000000       0.00000000
W       20.80438985      60.06654090      -0.35506316  T       0.00000000       0.00000000       0.00000000
W       15.60273406      60.06653849       0.55486748  T       0.00000000       0.00000000       0.00000000
W       14.30280618      62.31903465      -1.30347114  T       0.00000000       0.00000000       0.00000000
W       16.90365702      62.31903417      -0.38027076  T       0.00000000       0.00000000       0.00000000
W       19.50449887      62.31903383       0.54328840  T       0.00000000       0.00000000       0.00000000
W       18.20463684      64.57153309      -1.31640786  T       0.00000000       0.00000000       0.00000000
W       20.80528591      64.57148904      -0.39355135  F      -0.00020306      -0.00002546       0.00001075
W       15.60377093      64.57153385       0.51978773  T       0.00000000       0.00000000       0.00000000
W       14.30389429      66.82403480      -1.33820622  T       0.00000000       0.00000000       0.00000000
W       16.90478744      66.82403426      -0.41663364  T       0.00000000       0.00000000       0.00000000
W       19.50567428      66.82403366       0.50514144  T       0.00000000       0.00000000       0.00000000
W       18.20585390      69.07653431      -1.35403559  T       0.00000000       0.00000000       0.00000000
W       20.80653728      69.07650231      -0.43311227  F      -0.00018827      -0.00001005       0.00000700
W       15.60493600      69.07653454       0.48391582  T       0.00000000       0.00000000       0.00000000
W       14.30507006      71.32903252      -1.37346915  T       0.00000000       0.00000000       0.00000000
W       16.90601842      71.32903250      -0.45360398  T       0.00000000       0.00000000       0.00000000
W       19.50696578      71.32903249       0.46629069  T       0.00000000       0.00000000       0.00000000
W       18.20713468      73.58152776       1.36669004  T       0.00000000       0.00000000       0.00000000
W       20.80787953      73.58151844       2.28561780  F      -0.00018118       0.00000888       0.00000713
W       15.60615627      73.58152782       3.20644846  T       0.00000000       0.00000000       0.00000000
W       14.30625892      75.83402076       1.34992259  T       0.00000000       0.00000000       0.00000000
W       16.90726447      75.83402044       2.26806845  T       0.00000000       0.00000000       0.00000000
W       19.50827476      75.83402007       3.18606824  T       0.00000000       0.00000000       0.00000000
W       18.20838331      78.08651106       1.32887106  T       0.00000000       0.00000000       0.00000000
W       20.80920211      78.08652340       2.24583379  F      -0.00018388       0.00002432       0.00001018
W       15.60734872      78.08651173       3.17041103  T       0.00000000       0.00000000       0.00000000
W       14.30738394      80.33900312       1.31495978  T       0.00000000       0.00000000       0.00000000
W       16.90843715      80.33900239       2.23144374  T       0.00000000       0.00000000       0.00000000
W       19.50949885      80.33900167       3.14761824  T       0.00000000       0.00000000       0.00000000
W       18.20951039      82.59149564       1.29179077  T       0.00000000       0.00000000       0.00000000
W       20.81059495      82.59149583       2.20688998  T       0.00000000       0.00000000       0.00000000
W       15.60843540      82.59149575       3.13501371  T       0.00000000       0.00000000       0.00000000
W       14.30837927      84.84399257       1.28080222  T       0.00000000       0.00000000       0.00000000
W       16.90946190      84.84399383       2.19574342  T       0.00000000       0.00000000       0.00000000
W       19.51055330      84.84399583       3.11023621  T       0.00000000       0.00000000       0.00000000
W       18.21044979      87.09650221       1.25593649  T       0.00000000       0.00000000       0.00000000
W       20.81155028      87.09650885       2.16938064  T       0.00000000       0.00000000       0.00000000
W       15.60935692      87.09649740       3.10068395  T       0.00000000       0.00000000       0.00000000
W       14.30919992      89.34900709       1.24781856  T       0.00000000       0.00000000       0.00000000
W       16.91029002      89.34901565       2.16138317  T       0.00000000       0.00000000       0.00000000
W       19.51138565      89.34902695       3.07439251  T       0.00000000       0.00000000       0.00000000
W       18.21116740      91.60155322       1.22169865  T       0.00000000       0.00000000       0.00000000
W       20.81225724      91.60157497       2.13372440  T       0.00000000       0.00000000       0.00000000
W       15.61007995      91.60153635       3.06777160  T       0.00000000       0.00000000       0.00000000
W       16.91090251      93.85408732       2.12868259  T       0.00000000       0.00000000       0.00000000
W       19.51197942      93.85411657       3.04043802  T       0.00000000       0.00000000       0.00000000
W       18.21166029      96.10666579       1.18935503  T       0.00000000       0.00000000       0.00000000
W       20.81271874      96.10671217       2.10021848  T       0.00000000       0.00000000       0.00000000
W       15.61059748      96.10662861       3.03653469  T       0.00000000       0.00000000       0.00000000
W       16.91130642      98.35922162       2.09785790  T       0.00000000       0.00000000       0.00000000
W       19.51234820      98.35927732       3.00859791  T       0.00000000       0.00000000       0.00000000
W       18.21194911     100.61184783       1.15907195  T       0.00000000       0.00000000       0.00000000
W       20.81296382     100.61192674       2.06902611  T       0.00000000       0.00000000       0.00000000
W       19.51252472     102.86451104       2.97898206  T       0.00000000       0.00000000       0.00000000
W       20.81303474     105.11721385       2.04019629  T       0.00000000       0.00000000       0.00000000
W       27.30514886      30.78612939       0.79612030  T       0.00000000       0.00000000       0.00000000
W       26.00448310      33.03825076      -1.06183055  T       0.00000000       0.00000000       0.00000000
W       28.60556849      33.03851037      -0.12900862  T       0.00000000       0.00000000       0.00000000
W       24.70385966      35.29040804      -0.16137795  T       0.00000000       0.00000000       0.00000000
W       27.30490816      35.29062790       0.77089575  T       0.00000000       0.00000000       0.00000000
W       26.00429691      37.54278596      -1.08826580  T       0.00000000       0.00000000       0.00000000
W       28.60533453      37.54299987      -0.15569351  T       0.00000000       0.00000000       0.00000000
W       23.40328725      37.54260527       0.73881070  T       0.00000000       0.00000000       0.00000000
W       22.10277359      39.79484481      -1.11992623  T       0.00000000       0.00000000       0.00000000
W       24.70374423      39.79498846      -0.18895200  T       0.00000000       0.00000000       0.00000000
W       27.30473943      39.79516060       0.74292290  T       0.00000000       0.00000000       0.00000000
W       26.00421161      42.04737065      -1.11743826  T       0.00000000       0.00000000       0.00000000
W       28.60518970      42.04753261      -0.18536361  T       0.00000000       0.00000000       0.00000000
W       23.40325817      42.04723726       0.71018667  T       0.00000000       0.00000000       0.00000000
W       22.10284468      44.29953212      -1.14949593  T       0.00000000       0.00000000       0.00000000
W       24.70375928      44.29963115      -0.21921641  T       0.00000000       0.00000000       0.00000000
W       27.30469306      44.29975292       0.71199253  T       0.00000000       0.00000000       0.00000000
W       26.00428180      46.55202787      -1.14949805  T       0.00000000       0.00000000       0.00000000
W       28.60495014      46.55198767      -0.21823318  F      -0.00018372      -0.00011647      -0.00000120
W       23.40338785      46.55194075       0.67895519  T       0.00000000       0.00000000       0.00000000
W       22.10309940      48.80429586      -1.18155536  T       0.00000000       0.00000000       0.00000000
W       24.70396032      48.80435464      -0.25225585  T       0.00000000       0.00000000       0.00000000
W       27.30458127      48.80429288       0.67796737  F      -0.00019274      -0.00010089       0.00000120
W       26.00431831      51.05665507      -1.18449925  F      -0.00020500      -0.00008833       0.00000345
W       28.60491592      51.05657715      -0.25440851  F      -0.00028342      -0.00013670       0.00000323
W       23.40372884      51.05672803       0.64510069  T       0.00000000       0.00000000       0.00000000
W       22.10358329      53.30914108      -1.21605027  T       0.00000000       0.00000000       0.00000000
W       24.70416105      53.30906596      -0.28803948  F      -0.00021424      -0.00007782       0.00000504
W       27.30473200      53.30897573       0.64083302  F      -0.00029882      -0.00012548       0.00000556
W       26.00467512      55.56142077      -1.22236602  F      -0.00029354      -0.00011887       0.00000447
W       28.60517241      55.56130993      -0.29385716  F      -0.00028210      -0.00011618       0.00000759
W       23.40411703      55.56151944       0.60873596  F      -0.00019026      -0.00006088       0.00000570
W       22.10432683      57.81406043      -1.25279910  T       0.00000000       0.00000000       0.00000000
W       24.70476293      57.81391796      -0.32640491  F      -0.00022352      -0.00008605       0.00000148
W       27.30522332      57.81380414       0.60073961  F      -0.00027284      -0.00010090       0.00001103
W       26.00537905      60.06634054      -1.26283316  F      -0.00027006      -0.00006488       0.00001231
W       28.60580114      60.06621232      -0.33632937  F      -0.00022994      -0.00006310       0.00001456
W       23.40490148      60.06645636       0.57011046  F      -0.00019790      -0.00003262       0.00000542
W       22.10506546      62.31897409      -1.29145339  F      -0.00022088      -0.00002396       0.00001027
W       24.70559865      62.31888765      -0.36698273  F      -0.00029784      -0.00003895       0.00001394
W       27.30605310      62.31877633       0.55805413  F      -0.00025683      -0.00004482       0.00001681
W       26.00637645      64.57134248      -1.30544030  F      -0.00029296      -0.00003734       0.00001753
W       28.60680742      64.57124334      -0.38131890  F      -0.00021660      -0.00003070       0.00002013
W       23.40587376      64.57142381       0.52966053  F      -0.00031356      -0.00004014       0.00001318
W       22.10621382      66.82396291      -1.33155922  F      -0.00024934      -0.00003130       0.00000668
W       24.70675274      66.82390190      -0.40924731  F      -0.00030609      -0.00003382       0.00001879
W       27.30723156      66.82383154       0.51338490  F      -0.00024124      -0.00002394       0.00002120
W       26.00768500      69.07640613      -1.34951162  F      -0.00026719      -0.00001594       0.00002002
W       28.60816291      69.07635357      -0.42804998  F      -0.00020612      -0.00001169       0.00002381
W       23.40714857      69.07645347       0.48796572  F      -0.00029347      -0.00002071       0.00001353
W       22.10754939      71.32899443      -1.37248791  F      -0.00023059      -0.00000172       0.00000598
W       24.70813914      71.32896381      -0.45248665  F      -0.00027994      -0.00000145       0.00001964
W       27.30868023      71.32893600       0.46755840  F      -0.00022230      -0.00000002       0.00002293
W       26.00916949      73.58149334       1.36452606  F      -0.00025255       0.00001469       0.00002026
W       28.60973404      73.58149143       2.28320337  F      -0.00019992       0.00001025       0.00002455
W       23.40855766      73.58150274       3.20447953  F      -0.00027966       0.00001647       0.00001377
W       22.10893390      75.83402230       1.34519117  F      -0.00022935       0.00002763       0.00000693
W       24.70960836      75.83402594       2.26285400  F      -0.00027610       0.00003028       0.00001884
W       27.31024197      75.83404327       3.18027985  F      -0.00021898       0.00002395       0.00002206
W       26.01067726      78.08656675       1.32012478  F      -0.00025423       0.00003789       0.00001835
W       28.61134018      78.08661644       2.23607281  F      -0.00019761       0.00003061       0.00002186
W       23.40997253      78.08653489       3.16251067  F      -0.00027630       0.00003716       0.00001247
W       22.11027786      80.33902027       1.30472204  F      -0.00019097       0.00002449       0.00000666
W       24.71103550      80.33906631       2.22014719  F      -0.00026116       0.00004752       0.00001467
W       27.31175322      80.33913110       3.13508248  F      -0.00022249       0.00004566       0.00001819
W       26.01207139      82.59162824       1.27690220  F      -0.00025029       0.00006707       0.00001515
W       28.61280994      82.59172220       2.19034490  F      -0.00020125       0.00005278       0.00001718
W       23.41131370      82.59156216       3.12153733  F      -0.00020977       0.00005940       0.00000476
W       22.11143389      84.84404518       1.26549515  F      -0.00017374       0.00004300       0.00000772
W       24.71227663      84.84411234       2.17889187  F      -0.00026128       0.00007502       0.00000910
W       27.31306806      84.84420858       3.09159923  F      -0.00024191       0.00006959       0.00001272
W       26.01322761      87.09667854       1.23560705  F      -0.00025064       0.00006890       0.00001040
W       28.61402183      87.09681967       2.14689482  F      -0.00021615       0.00006582       0.00001093
W       23.41239150      87.09657982       3.08221929  F      -0.00018721       0.00004714       0.00000763
W       22.11248630      89.34904189       1.22803669  T       0.00000000       0.00000000       0.00000000
W       24.71330379      89.34914541       2.13970335  F      -0.00016948       0.00004813       0.00000647
W       27.31412380      89.34928447       3.05053259  F      -0.00022077       0.00006796       0.00000830
W       26.01414274      91.60174960       1.19679177  F      -0.00014838       0.00005172       0.00000451
W       28.61494180      91.60193613       2.10633952  F      -0.00019211       0.00007410       0.00000523
W       23.41334811      91.60160310       3.04503002  T       0.00000000       0.00000000       0.00000000
W       22.11305449      93.85415365       1.19275302  T       0.00000000       0.00000000       0.00000000
W       24.71412533      93.85420090       2.10299961  T       0.00000000       0.00000000       0.00000000
W       27.31489531      93.85439884       3.01234190  F      -0.00013126       0.00005880       0.00000229
W       26.01481145      96.10684318       1.16079096  T       0.00000000       0.00000000       0.00000000
W       28.61555489      96.10709878       2.06902172  F      -0.00012048       0.00006959      -0.00000000
W       23.41377025      96.10677022       3.01030733  T       0.00000000       0.00000000       0.00000000
W       22.11338084      98.35934601       1.15986084  T       0.00000000       0.00000000       0.00000000
W       24.71440095      98.35943099       2.06902410  T       0.00000000       0.00000000       0.00000000
W       27.31540437      98.35953644       2.97725501  T       0.00000000       0.00000000       0.00000000
W       26.01494685     100.61214072       1.12774100  T       0.00000000       0.00000000       0.00000000
W       28.61590655     100.61228494       2.03504664  T       0.00000000       0.00000000       0.00000000
W       23.41396439     100.61202300       2.97818948  T       0.00000000       0.00000000       0.00000000
W       22.11350747     102.86461771       1.12945440  T       0.00000000       0.00000000       0.00000000
W       24.71447130     102.86474645       2.03783206  T       0.00000000       0.00000000       0.00000000
W       27.31541196     102.86490201       2.94529568  T       0.00000000       0.00000000       0.00000000
W       26.01490649     105.11751766       1.09761295  T       0.00000000       0.00000000       0.00000000
W       28.61580355     105.11771493       2.00432490  T       0.00000000       0.00000000       0.00000000
W       23.41398216     105.11735236       2.94869757  T       0.00000000       0.00000000       0.00000000
W       22.11348291     107.36995743       1.10151983  T       0.00000000       0.00000000       0.00000000
W       24.71439332     107.37013097       2.00937048  T       0.00000000       0.00000000       0.00000000
W       27.31527742     107.37033569       2.91635294  T       0.00000000       0.00000000       0.00000000
W       26.01474828     109.62295194       1.07028211  T       0.00000000       0.00000000       0.00000000
W       28.61559338     109.62319743       1.97666924  T       0.00000000       0.00000000       0.00000000
W       27.31505572     111.87581181       2.89023595  T       0.00000000       0.00000000       0.00000000
W       28.61532503     114.12870555       1.95183075  T       0.00000000       0.00000000       0.00000000
W       36.40971117      24.03074632      -0.03938212  T       0.00000000       0.00000000       0.00000000
W       32.50774253      26.28233852      -0.07262729  T       0.00000000       0.00000000       0.00000000
W       35.10893924      26.28274467       0.86223116  T       0.00000000       0.00000000       0.00000000
W       33.80817148      28.53474865      -0.99551687  T       0.00000000       0.00000000       0.00000000
W       36.40937534      28.53516750      -0.06004378  T       0.00000000       0.00000000       0.00000000
W       31.20699562      28.53437305       0.82865100  T       0.00000000       0.00000000       0.00000000
W       29.90626772      30.78642774      -1.02931457  T       0.00000000       0.00000000       0.00000000
W       32.50741656      30.78676733      -0.09512418  T       0.00000000       0.00000000       0.00000000
W       35.10859647      30.78715175       0.84001317  T       0.00000000       0.00000000       0.00000000
W       33.80783360      33.03915394      -1.01929865  T       0.00000000       0.00000000       0.00000000
W       36.40901707      33.03954698      -0.08354844  T       0.00000000       0.00000000       0.00000000
W       31.20668458      33.03880987       0.80472462  T       0.00000000       0.00000000       0.00000000
W       29.90598670      35.29088488      -1.05464370  T       0.00000000       0.00000000       0.00000000
W       32.50709853      35.29118442      -0.12045652  T       0.00000000       0.00000000       0.00000000
W       35.10824653      35.29153212       0.81480159  T       0.00000000       0.00000000       0.00000000
W       33.80750980      37.54355089      -1.04619645  T       0.00000000       0.00000000       0.00000000
W       36.40842908      37.54368350      -0.11037485  F      -0.00012709      -0.00015497      -0.00000542
W       31.20640414      37.54325273       0.77787782  T       0.00000000       0.00000000       0.00000000
W       29.90576368      39.79536688      -1.08294464  T       0.00000000       0.00000000       0.00000000
W       32.50664729      39.79547284      -0.14899999  F      -0.00014779      -0.00013429      -0.00000570
W       35.10760444      39.79566585       0.78613912  F      -0.00018616      -0.00015046      -0.00000148
W       33.80684091      42.04767156      -1.07663356  F      -0.00024960      -0.00019471      -0.00000447
W       36.40773608      42.04778753      -0.14100859  F      -0.00022362      -0.00018574      -0.00001103
W       31.20598753      42.04757087       0.74777457  F      -0.00017446      -0.00014659      -0.00000504
W       29.90542131      44.29974567      -1.11449890  F      -0.00017896      -0.00013335      -0.00000345
W       32.50619492      44.29977652      -0.18110081  F      -0.00025799      -0.00019601      -0.00000556
W       35.10699362      44.29982372       0.75358702  F      -0.00024150      -0.00018616      -0.00000759
W       33.80636457      46.55195421      -1.11096998  F      -0.00024215      -0.00017288      -0.00000537
W       36.40710615      46.55195218      -0.17593917  F      -0.00018434      -0.00013893      -0.00000811
W       31.20565272      46.55196827       0.71414020  F      -0.00026004      -0.00017709      -0.00000323
W       29.90522383      48.80423779      -1.14950057  F      -0.00026852      -0.00015504       0.00000000
W       32.50585916      48.80417685      -0.21705151  F      -0.00024544      -0.00015359      -0.00000191
W       35.10650747      48.80411799       0.71674594  F      -0.00018747      -0.00012571      -0.00000429
W       33.80605580      51.05638415      -1.14950363  F      -0.00019348      -0.00011178      -0.00000000
W       36.40663539      51.05628126      -0.21560349  F      -0.00018310      -0.00011412      -0.00000276
W       31.20548886      51.05648458       0.67678017  F      -0.00025572      -0.00013584       0.00000191
W       29.90525983      53.30886678      -1.18803360  F      -0.00027085      -0.00012336       0.00000537
W       32.50576222      53.30874157      -0.25702031  F      -0.00020260      -0.00009963       0.00000429
W       35.10625667      53.30860362       0.67532537  F      -0.00019033      -0.00010166       0.00000275
W       33.80605966      55.56102184      -1.19235831  F      -0.00019429      -0.00008817       0.00000800
W       36.40647430      55.56084698      -0.26025404  F      -0.00024987      -0.00012338       0.00000724
W       31.20562905      55.56117613       0.63566550  F      -0.00021254      -0.00009032       0.00000811
W       29.90564915      57.81367183      -1.22998476  F      -0.00021935      -0.00008023       0.00001201
W       32.50603949      57.81351689      -0.30095530  F      -0.00019438      -0.00007392       0.00001270
W       35.10639704      57.81333662       0.62928267  F      -0.00024797      -0.00010294       0.00001382
W       33.80650970      60.06589797      -1.23936218  F      -0.00023914      -0.00008083       0.00001908
W       36.40678988      60.06569554      -0.30980716  F      -0.00031782      -0.00011815       0.00002089
W       31.20617788      60.06606722       0.59101881  F      -0.00019365      -0.00005801       0.00001623
W       29.90644527      62.31864994      -1.27497719  F      -0.00019940      -0.00004215       0.00001868
W       32.50678240      62.31850340      -0.34848399  F      -0.00022602      -0.00005859       0.00002264
W       35.10705803      62.31832754       0.57896185  F      -0.00030469      -0.00009063       0.00002650
W       33.80748019      64.57098776      -1.28993973  F      -0.00028493      -0.00006410       0.00003002
W       36.40770397      64.57081455      -0.36367678  F      -0.00035871      -0.00008894       0.00003313
W       31.20717624      64.57112708       0.54338567  F      -0.00021287      -0.00003879       0.00002443
W       29.90764971      66.82374832      -1.32232866  F      -0.00020428      -0.00002341       0.00002477
W       32.50800574      66.82364916      -0.39884424  F      -0.00025946      -0.00004000       0.00003133
W       35.10828530      66.82352621       0.52520685  F      -0.00033395      -0.00006058       0.00003576
W       33.80893998      69.07621886      -1.34305898  F      -0.00030535      -0.00003505       0.00003664
W       36.40921006      69.07612384      -0.42067289  F      -0.00037439      -0.00004690       0.00003910
W       31.20858464      69.07629279       0.49366031  F      -0.00023078      -0.00001963       0.00003039
W       29.90917274      71.32890814      -1.37106958  F      -0.00020642      -0.00000337       0.00002789
W       32.50961153      71.32887709      -0.45089191  F      -0.00027086      -0.00001258       0.00003540
W       35.10998031      71.32883807       0.46937603  F      -0.00033693      -0.00002218       0.00003830
W       33.81072206      73.58150167       1.36143934  F      -0.00030161       0.00000004       0.00003713
W       36.41112002      73.58150854       2.27967367  F      -0.00036644      -0.00000185       0.00003705
W       31.21025468      73.58149498       3.20175998  F      -0.00023190       0.00000545       0.00003174
W       29.91083749      75.83407325       1.33869682  F      -0.00020110       0.00001877       0.00002679
W       32.51139394      75.83411480       2.25551476  F      -0.00026057       0.00001820       0.00003380
W       35.11189915      75.83416798       3.17192926  F      -0.00032089       0.00001700       0.00003483
W       33.81256685      78.08677009       1.30771451  F      -0.00028027       0.00003450       0.00003252
W       36.41311510      78.08687935       2.22191653  F      -0.00033767       0.00003930       0.00002983
W       31.21197133      78.08668349       3.15154596  F      -0.00021605       0.00002996       0.00002788
W       29.91244395      80.33921617       1.29070650  F      -0.00018954       0.00003860       0.00002164
W       32.51310952      80.33932597       2.20437224  F      -0.00023211       0.00004478       0.00002713
W       35.11374220      80.33946574       3.11720404  F      -0.00029081       0.00005319       0.00002806
W       33.81422122      82.59200700       1.25604401  F      -0.00024261       0.00006192       0.00002384
W       36.41488327      82.59220961       2.16669458  F      -0.00029599       0.00007500       0.00002158
W       31.21352724      82.59184720       3.10301936  F      -0.00019060       0.00004875       0.00002026
W       29.91382764      84.84434294       1.24475987  F      -0.00018671       0.00005539       0.00001444
W       32.51456336      84.84451641       2.15569231  F      -0.00019269       0.00006018       0.00001708
W       35.11527423      84.84473541       3.06548078  F      -0.00024601       0.00008039       0.00001829