1979
Lattice="140.45173612814077 0.0 0.0 0.0 144.15972917641307 0.0 0.0 0.0 2.7587326401564427" Properties=species:S:1:pos:R:3:fix_mask:L:1:forces:R:3 energy=-18661.046906430594 pbc="T T T"
W       13.00100355      55.56156133      -0.33637443  T       0.00000000       0.00000000       0.00000000
W       13.00185884      60.06653782      -0.36890501  T       0.00000000       0.00000000       0.00000000
W       11.70191949      62.31903500       0.53237448  T       0.00000000       0.00000000       0.00000000
W       13.00287520      64.57153442      -0.40248464  T       0.00000000       0.00000000       0.00000000
W       11.70298016      66.82403520       0.49913002  T       0.00000000       0.00000000       0.00000000
W       10.40308113      69.07653489      -1.35733332  T       0.00000000       0.00000000       0.00000000
W       13.00400538      69.07653471      -0.43675611  T       0.00000000       0.00000000       0.00000000
W       11.70411860      71.32903253       0.46542393  T       0.00000000       0.00000000       0.00000000
W       10.40420911      73.58152792       1.36834264  T       0.00000000       0.00000000       0.00000000
W       13.00518428      73.58152787       2.28741933  T       0.00000000       0.00000000       0.00000000
W       11.70526861      75.83402100       3.19038239  T       0.00000000       0.00000000       0.00000000
W       13.00633864      78.08651223       2.25300362  T       0.00000000       0.00000000       0.00000000
W       11.70636209      80.33900365       3.15693858  T       0.00000000       0.00000000       0.00000000
W       13.00739935      82.59149583       2.21914625  T       0.00000000       0.00000000       0.00000000
W       11.70733994      84.84399160       3.12420046  T       0.00000000       0.00000000       0.00000000
W       13.00831235      87.09649375       2.18622396  T       0.00000000       0.00000000       0.00000000
W       20.80226221      42.04713327      -0.22004842  T       0.00000000       0.00000000       0.00000000
W       19.50188352      44.29945542       0.67979056  T       0.00000000       0.00000000       0.00000000
W       18.20157624      46.55181688      -1.17906351  T       0.00000000       0.00000000       0.00000000
W       20.80244654      46.55187394      -0.25044584  T       0.00000000       0.00000000       0.00000000
W       16.90133936      48.80421348      -0.27906723  T       0.00000000       0.00000000       0.00000000
W       19.50218761      48.80425105       0.64869335  T       0.00000000       0.00000000       0.00000000
W       18.20200294      51.05666310      -1.21072481  T       0.00000000       0.00000000       0.00000000
W       20.80283637      51.05669232      -0.28318316  T       0.00000000       0.00000000       0.00000000
W       15.60116927      51.05664014       0.62112210  T       0.00000000       0.00000000       0.00000000
W       14.30105998      53.30909129      -1.23715713  T       0.00000000       0.00000000       0.00000000
W       16.90188681      53.30910397      -0.31115288  T       0.00000000       0.00000000       0.00000000
W       19.50270976      53.30912041       0.61543410  T       0.00000000       0.00000000       0.00000000
W       18.20265208      55.56157534      -1.24434736  T       0.00000000       0.00000000       0.00000000
W       20.80346692      55.56158605      -0.31813871  T       0.00000000       0.00000000       0.00000000
W       15.60183101      55.56156732       0.58875244  T       0.00000000       0.00000000       0.00000000
W       14.30182544      57.81404708      -1.26967320  T       0.00000000       0.00000000       0.00000000
W       16.90265252      57.81405008      -0.34498194  T       0.00000000       0.00000000       0.00000000
W       19.50347148      57.81405435       0.58019680  T       0.00000000       0.00000000       0.00000000
W       18.20352975      60.06653913      -1.27969241  T       0.00000000       0.00000000       0.00000000
W       20.80435139      60.06654068      -0.35506257  T       0.00000000       0.00000000       0.00000000
W       15.60269865      60.06653825       0.55486807  T       0.00000000       0.00000000       0.00000000
W       14.30277725      62.31903443      -1.30347059  T       0.00000000       0.00000000       0.00000000
W       16.90362683      62.31903395      -0.38027021  T       0.00000000       0.00000000       0.00000000
W       19.50446731      62.31903360       0.54328897  T       0.00000000       0.00000000       0.00000000
W       18.20461252      64.57153292      -1.31640738  T       0.00000000       0.00000000       0.00000000
W       20.80538155      64.57150905      -0.39355841  F      -0.00016491      -0.00002262       0.00000478
W       15.60374770      64.57153369       0.51978820  T       0.00000000       0.00000000       0.00000000
W       14.30387813      66.82403471      -1.33820587  T       0.00000000       0.00000000       0.00000000
W       16.90477052      66.82403417      -0.41663328  T       0.00000000       0.00000000       0.00000000
W       19.50565652      66.82403355       0.50514182  T       0.00000000       0.00000000       0.00000000
W       18.20584388      69.07653427      -1.35403536  T       0.00000000       0.00000000       0.00000000
W       20.80665924      69.07651422      -0.43311984  F      -0.00017730      -0.00000978       0.00000383
W       15.60492645      69.07653451       0.48391603  T       0.00000000       0.00000000       0.00000000
W       14.30506772      71.32903252      -1.37346910  T       0.00000000       0.00000000       0.00000000
W       16.90601596      71.32903250      -0.45360392  T       0.00000000       0.00000000       0.00000000
W       19.50696320      71.32903249       0.46629075  T       0.00000000       0.00000000       0.00000000
W       18.20713971      73.58152775       1.36668993  T       0.00000000       0.00000000       0.00000000
W       20.80801895      73.58151726       2.28560951  F      -0.00017472       0.00000786       0.00000402
W       15.60616106      73.58152782       3.20644835  T       0.00000000       0.00000000       0.00000000
W       14.30627054      75.83402071       1.34992232  T       0.00000000       0.00000000       0.00000000
W       16.90727665      75.83402039       2.26806817  T       0.00000000       0.00000000       0.00000000
W       19.50828756      75.83402002       3.18606794  T       0.00000000       0.00000000       0.00000000
W       18.20840301      78.08651094       1.32887061  T       0.00000000       0.00000000       0.00000000
W       20.80934862      78.08651074       2.24582491  F      -0.00015838       0.00002087       0.00000494
W       15.60736752      78.08651162       3.17041060  T       0.00000000       0.00000000       0.00000000
W       14.30740879      80.33900294       1.31495924  T       0.00000000       0.00000000       0.00000000
W       16.90846311      80.33900221       2.23144317  T       0.00000000       0.00000000       0.00000000
W       19.50952603      80.33900147       3.14761764  T       0.00000000       0.00000000       0.00000000
W       18.20954333      82.59149540       1.29179009  T       0.00000000       0.00000000       0.00000000
W       20.81062937      82.59149559       2.20688928  T       0.00000000       0.00000000       0.00000000
W       15.60846696      82.59149552       3.13501306  T       0.00000000       0.00000000       0.00000000
W       14.30841580      84.84399233       1.28080151  T       0.00000000       0.00000000       0.00000000
W       16.90949990      84.84399360       2.19574268  T       0.00000000       0.00000000       0.00000000
W       19.51059285      84.84399562       3.11023546  T       0.00000000       0.00000000       0.00000000
W       18.21049375      87.09650210       1.25593573  T       0.00000000       0.00000000       0.00000000
W       20.81159590      87.09650880       2.16937987  T       0.00000000       0.00000000       0.00000000
W       15.60939930      87.09649725       3.10068319  T       0.00000000       0.00000000       0.00000000
W       14.30924607      89.34900707       1.24781780  T       0.00000000       0.00000000       0.00000000
W       16.91033772      89.34901572       2.16138241  T       0.00000000       0.00000000       0.00000000
W       19.51143496      89.34902714       3.07439176  T       0.00000000       0.00000000       0.00000000
W       18.21121976      91.60155376       1.22169794  T       0.00000000       0.00000000       0.00000000
W       20.81231115      91.60157574       2.13372371  T       0.00000000       0.00000000       0.00000000
W       15.61013080      91.60153670       3.06777087  T       0.00000000       0.00000000       0.00000000
W       16.91095738      93.85408828       2.12868193  T       0.00000000       0.00000000       0.00000000
W       19.51203568      93.85411786       3.04043740  T       0.00000000       0.00000000       0.00000000
W       18.21171841      96.10666769       1.18935448  T       0.00000000       0.00000000       0.00000000
W       20.81277804      96.10671459       2.10021798  T       0.00000000       0.00000000       0.00000000
W       15.61065439      96.10663008       3.03653410  T       0.00000000       0.00000000       0.00000000
W       16.91136600      98.35922420       2.09785743  T       0.00000000       0.00000000       0.00000000
W       19.51240876      98.35928054       3.00859749  T       0.00000000       0.00000000       0.00000000
W       18.21201060     100.61185191       1.15907162  T       0.00000000       0.00000000       0.00000000
W       20.81302596     100.61193172       2.06902584  T       0.00000000       0.00000000       0.00000000
W       19.51258731     102.86451704       2.97898187  T       0.00000000       0.00000000       0.00000000
W       20.81309768     105.11722226       2.04019624  T       0.00000000       0.00000000       0.00000000
W       27.30509140      30.78615264       0.79611921  T       0.00000000       0.00000000       0.00000000
W       26.00442342      33.03826964      -1.06183158  T       0.00000000       0.00000000       0.00000000
W       28.60551032      33.03853228      -0.12900971  T       0.00000000       0.00000000       0.00000000
W       24.70379827      35.29042298      -0.16137887  T       0.00000000       0.00000000       0.00000000
W       27.30484784      35.29064539       0.77089474  T       0.00000000       0.00000000       0.00000000
W       26.00423502      37.54279953      -1.08826668  T       0.00000000       0.00000000       0.00000000
W       28.60527359      37.54301592      -0.15569450  T       0.00000000       0.00000000       0.00000000
W       23.40322474      37.54261673       0.73880993  T       0.00000000       0.00000000       0.00000000
W       22.10271065      39.79485330      -1.11992681  T       0.00000000       0.00000000       0.00000000
W       24.70368146      39.79499862      -0.18895271  T       0.00000000       0.00000000       0.00000000
W       27.30467710      39.79517275       0.74292207  T       0.00000000       0.00000000       0.00000000
W       26.00414868      42.04737949      -1.11743890  T       0.00000000       0.00000000       0.00000000
W       28.60512703      42.04754332      -0.18536438  T       0.00000000       0.00000000       0.00000000
W       23.40319529      42.04724455       0.71018617  T       0.00000000       0.00000000       0.00000000
W       22.10278254      44.29953709      -1.14949621  T       0.00000000       0.00000000       0.00000000
W       24.70369664      44.29963727      -0.21921682  T       0.00000000       0.00000000       0.00000000
W       27.30463015      44.29976045       0.71199198  T       0.00000000       0.00000000       0.00000000
W       26.00421967      46.55203284      -1.14949835  T       0.00000000       0.00000000       0.00000000
W       28.60502581      46.55207954      -0.21823266  F      -0.00019844      -0.00012370      -0.00000063
W       23.40332646      46.55194473       0.67895502  T       0.00000000       0.00000000       0.00000000
W       22.10304022      48.80429822      -1.18155531  T       0.00000000       0.00000000       0.00000000
W       24.70390002      48.80435768      -0.25225590  T       0.00000000       0.00000000       0.00000000
W       27.30466331      48.80437374       0.67796621  F      -0.00020636      -0.00010998       0.00000063
W       26.00440404      51.05672412      -1.18450193  F      -0.00020788      -0.00009392       0.00000175
W       28.60513280      51.05672013      -0.25441211  F      -0.00038588      -0.00019214       0.00000212
W       23.40367142      51.05672967       0.64510086  T       0.00000000       0.00000000       0.00000000
W       22.10352976      53.30914179      -1.21604991  T       0.00000000       0.00000000       0.00000000
W       24.70424623      53.30912327      -0.28804314  F      -0.00020105      -0.00007749       0.00000237
W       27.30494948      53.30909918       0.64082674  F      -0.00038305      -0.00016464       0.00000374
W       26.00488048      55.56152578      -1.22237301  F      -0.00036058      -0.00013860       0.00000342
W       28.60551869      55.56147728      -0.29386921  F      -0.00051796      -0.00020486       0.00000778
W       23.40418816      55.56156374       0.60873218  F      -0.00017387      -0.00006012       0.00000282
W       22.10428201      57.81406035      -1.25279855  T       0.00000000       0.00000000       0.00000000
W       24.70492513      57.81399569      -0.32641106  F      -0.00029362      -0.00010107       0.00000216
W       27.30555049      57.81394023       0.60072401  F      -0.00049388      -0.00016559       0.00001055
W       26.00567902      60.06643950      -1.26285000  F      -0.00045593      -0.00011813       0.00001075
W       28.60625070      60.06636577      -0.33635392  F      -0.00057076      -0.00015919       0.00001596
W       23.40503483      60.06649806       0.57010302  F      -0.00024418      -0.00005118       0.00000393
W       22.10518671      62.31900133      -1.29146183  F      -0.00021390      -0.00003125       0.00000534
W       24.70587225      62.31895483      -0.36699949  F      -0.00041463      -0.00007740       0.00000988
W       27.30648150      62.31889107       0.55802752  F      -0.00055947      -0.00011881       0.00001714
W       26.00677281      64.57142377      -1.30546658  F      -0.00052913      -0.00008230       0.00001637
W       28.60734234      64.57135944      -0.38135620  F      -0.00057632      -0.00009400       0.00002281
W       23.40611223      64.57147171       0.52964552  F      -0.00035668      -0.00005253       0.00000803
W       22.10638965      66.82399248      -1.33156950  F      -0.00026134      -0.00002980       0.00000414
W       24.70709919      66.82395526      -0.40927192  F      -0.00046858      -0.00005056       0.00001510
W       27.30773348      66.82390991       0.51334826  F      -0.00057583      -0.00006197       0.00002274
W       26.00813612      69.07645148      -1.34954463  F      -0.00054334      -0.00003059       0.00002010
W       28.60875354      69.07641503      -0.42809651  F      -0.00055596      -0.00002868       0.00002672
W       23.40743171      69.07648279       0.48794662  F      -0.00038211      -0.00002305       0.00001020
W       22.10775149      71.32900441      -1.37249974  F      -0.00026776      -0.00000205       0.00000458
W       24.70852092      71.32898184      -0.45251492  F      -0.00047273      -0.00000285       0.00001695
W       27.30922198      71.32896149       0.46751642  F      -0.00056374      -0.00000016       0.00002497
W       26.00964360      73.58149049       1.36449115  F      -0.00052940       0.00002587       0.00002055
W       28.61035090      73.58148713       2.28315418  F      -0.00053630       0.00003178       0.00002706
W       23.40886110      73.58150098       3.20445913  F      -0.00037492       0.00001705       0.00001060
W       22.10914681      75.83401012       1.34517910  F      -0.00025301       0.00002531       0.00000468
W       24.70999761      75.83400477       2.26282644  F      -0.00044916       0.00004314       0.00001588
W       27.31079220      75.83401097       3.18023889  F      -0.00054310       0.00005734       0.00002361
W       26.01114130      78.08651879       1.32009344  F      -0.00049456       0.00007342       0.00001781
W       28.61195076      78.08654716       2.23602866  F      -0.00052367       0.00008658       0.00002397
W       23.41026997      78.08650780       3.16249266  F      -0.00033901       0.00004605       0.00000865
W       22.11046818      80.33900208       1.30471231  F      -0.00020116       0.00002963       0.00000411
W       24.71139445      80.33901679       2.22012529  F      -0.00039049       0.00007281       0.00001185
W       27.31227571      80.33904886       3.13504896  F      -0.00050975       0.00010540       0.00001890
W       26.01248639      82.59154602       1.27687841  F      -0.00042931       0.00010814       0.00001336
W       28.61337740      82.59160058       2.19031175  F      -0.00050499       0.00013540       0.00001820
W       23.41155513      82.59151676       3.12152633  F      -0.00024960       0.00006395       0.00000405
W       22.11159685      84.84401549       1.26548795  F      -0.00014792       0.00004011       0.00000373
W       24.71258258      84.84404379       2.17887814  F      -0.00031166       0.00009099       0.00000624
W       27.31352868      84.84409476       3.09157684  F      -0.00045255       0.00013817       0.00001217
W       26.01356689      87.09659128       1.23559329  F      -0.00033729       0.00011136       0.00000706
W       28.61450871      87.09667396       2.14687537  F      -0.00045586       0.00016532       0.00001060
W       23.41258511      87.09654137       3.08221159  F      -0.00017556       0.00005118       0.00000383
W       22.11253728      89.34904225       1.22803594  T       0.00000000       0.00000000       0.00000000
W       24.71351298      89.34909618       2.13969632  F      -0.00018710       0.00006432       0.00000364
W       27.31448044      89.34917500       3.05052132  F      -0.00034603       0.00013461       0.00000589
W       26.01436010      91.60168817       1.19678647  F      -0.00019140       0.00007887       0.00000277
W       28.61530475      91.60180345       2.10633209  F      -0.00034514       0.00015830       0.00000387
W       23.41340357      91.60160419       3.04502936  T       0.00000000       0.00000000       0.00000000
W       22.11311211      93.85415536       1.19275243  T       0.00000000       0.00000000       0.00000000
W       24.71418427      93.85420314       2.10299907  T       0.00000000       0.00000000       0.00000000
W       27.31511488      93.85432533       3.01233895  F      -0.00019034       0.00009339       0.00000148
W       26.01487280      96.10684711       1.16079057  T       0.00000000       0.00000000       0.00000000
W       28.61577139      96.10701463       2.06902140  F      -0.00018497       0.00010681      -0.00000000
W       23.41383063      96.10677331       3.01030688  T       0.00000000       0.00000000       0.00000000
W       22.11344226      98.35935001       1.15986048  T       0.00000000       0.00000000       0.00000000
W       24.71446309      98.35943597       2.06902381  T       0.00000000       0.00000000       0.00000000
W       27.31546703      98.35954264       2.97725478  T       0.00000000       0.00000000       0.00000000
W       26.01500975     100.61214818       1.12774086  T       0.00000000       0.00000000       0.00000000
W       28.61596945     100.61229407       2.03504657  T       0.00000000       0.00000000       0.00000000
W       23.41402701     100.61202910       2.97818927  T       0.00000000       0.00000000       0.00000000
W       22.11357034     102.86462495       1.12945428  T       0.00000000       0.00000000       0.00000000
W       24.71453422     102.86475519       2.03783200  T       0.00000000       0.00000000       0.00000000
W       27.31547467     102.86491255       2.94529568  T       0.00000000       0.00000000       0.00000000
W       26.01496888     105.11752959       1.09761301  T       0.00000000       0.00000000       0.00000000
W       28.61586521     105.11772916       2.00432501  T       0.00000000       0.00000000       0.00000000
W       23.41404496     105.11736237       2.94869758  T       0.00000000       0.00000000       0.00000000
W       22.11354546     107.36996871       1.10151990  T       0.00000000       0.00000000       0.00000000
W       24.71445530     107.37014427       2.00937060  T       0.00000000       0.00000000       0.00000000
W       27.31533851     107.37035138       2.91635311  T       0.00000000       0.00000000       0.00000000
W       26.01480878     109.62296903       1.07028231  T       0.00000000       0.00000000       0.00000000
W       28.61565253     109.62321739       1.97666945  T       0.00000000       0.00000000       0.00000000
W       27.31511418     111.87583315       2.89023619  T       0.00000000       0.00000000       0.00000000
W       28.61538100     114.12873154       1.95183099  T       0.00000000       0.00000000       0.00000000
W       36.40966798      24.03079422      -0.03938293  T       0.00000000       0.00000000       0.00000000
W       32.50769307      26.28237582      -0.07262831  T       0.00000000       0.00000000       0.00000000
W       35.10889260      26.28278673       0.86223020  T       0.00000000       0.00000000       0.00000000
W       33.80812143      28.53478495      -0.99551793  T       0.00000000       0.00000000       0.00000000
W       36.40932819      28.53520871      -0.06004477  T       0.00000000       0.00000000       0.00000000
W       31.20694300      28.53440495       0.82864991  T       0.00000000       0.00000000       0.00000000
W       29.90621215      30.78645448      -1.02931569  T       0.00000000       0.00000000       0.00000000
W       32.50736325      30.78679805      -0.09512530  T       0.00000000       0.00000000       0.00000000
W       35.10854578      30.78718696       0.84001207  T       0.00000000       0.00000000       0.00000000
W       33.80777956      33.03918337      -1.01929980  T       0.00000000       0.00000000       0.00000000
W       36.40896569      33.03958101      -0.08354958  T       0.00000000       0.00000000       0.00000000
W       31.20662829      33.03883528       0.80472349  T       0.00000000       0.00000000       0.00000000
W       29.90592781      35.29090537      -1.05464479  T       0.00000000       0.00000000       0.00000000
W       32.50704146      35.29120841      -0.12045766  T       0.00000000       0.00000000       0.00000000
W       35.10819170      35.29156018       0.81480042  T       0.00000000       0.00000000       0.00000000
W       33.80745193      37.54357337      -1.04619761  T       0.00000000       0.00000000       0.00000000
W       36.40849647      37.54383937      -0.11036803  F      -0.00016644      -0.00018587      -0.00000393
W       31.20634453      37.54327173       0.77787674  T       0.00000000       0.00000000       0.00000000
W       29.90570214      39.79538143      -1.08294560  T       0.00000000       0.00000000       0.00000000
W       32.50668583      39.79557354      -0.14899684  F      -0.00013902      -0.00012051      -0.00000282
W       35.10771746      39.79582869       0.78614463  F      -0.00023437      -0.00020373      -0.00000215
W       33.80699914      42.04785814      -1.07662722  F      -0.00030035      -0.00024294      -0.00000341
W       36.40798211      42.04806404      -0.14099367  F      -0.00039034      -0.00034486      -0.00001055
W       31.20604437      42.04767723       0.74777760  F      -0.00016766      -0.00013535      -0.00000237
W       29.90548860      44.29984664      -1.11449685  F      -0.00018530      -0.00013305      -0.00000175
W       32.50637519      44.29996438      -0.18109520  F      -0.00033413      -0.00024938      -0.00000374
W       35.10727627      44.30010116       0.75359837  F      -0.00043638      -0.00034607      -0.00000777
W       33.80667312      46.55222027      -1.11096259  F      -0.00046833      -0.00033069      -0.00000526
W       36.40750099      46.55230064      -0.17592504  F      -0.00048205      -0.00036738      -0.00000947
W       31.20584961      46.55214585       0.71414313  F      -0.00035936      -0.00023807      -0.00000212
W       29.90543321      48.80439951      -1.14950090  F      -0.00037707      -0.00021768       0.00000000
W       32.50618755      48.80442345      -0.21704918  F      -0.00049287      -0.00030522      -0.00000184
W       35.10692816      48.80444256       0.71675317  F      -0.00050307      -0.00033560      -0.00000495
W       33.80649699      51.05667972      -1.14950400  F      -0.00052292      -0.00030190       0.00000000
W       36.40714029      51.05663792      -0.21559876  F      -0.00043099      -0.00026948      -0.00000286
W       31.20583127      51.05670695       0.67677712  F      -0.00051079      -0.00027420       0.00000184
W       29.90560919      53.30906223      -1.18804169  F      -0.00052060      -0.00024022       0.00000527
W       32.50621832      53.30900491      -0.25702829  F      -0.00054223      -0.00026790       0.00000495
W       35.10678264      53.30892388       0.67531984  F      -0.00044889      -0.00023859       0.00000286
W       33.80660251      55.56130378      -1.19237367  F      -0.00047127      -0.00020995       0.00000842
W       36.40706421      55.56117389      -0.26026749  F      -0.00036283      -0.00017404       0.00000628
W       31.20609295      55.56140514       0.63565064  F      -0.00055930      -0.00023381       0.00000948
W       29.90611100      57.81386438      -1.23000545  F      -0.00056988      -0.00019828       0.00001348
W       32.50659352      57.81375878      -0.30097936  F      -0.00049773      -0.00018251       0.00001357
W       35.10700672      57.81362064       0.62925720  F      -0.00038020      -0.00014834       0.00001209
W       33.80713474      60.06613747      -1.23939774  F      -0.00040237      -0.00012404       0.00001710
W       36.40746147      60.06597364      -0.30984589  F      -0.00036912      -0.00012452       0.00001804
W       31.20673557      60.06626723       0.59098792  F      -0.00052703      -0.00015461       0.00001790
W       29.90699745      62.31880726      -1.27501260  F      -0.00055585      -0.00012510       0.00002112
W       32.50741626      62.31869699      -0.34852700  F      -0.00043325      -0.00010122       0.00002122
W       35.10774814      62.31855628       0.57891213  F      -0.00036597      -0.00009224       0.00002239
W       33.80818138      64.57116553      -1.28999672  F      -0.00036957      -0.00006418       0.00002514
W       36.40846305      64.57102713      -0.36374321  F      -0.00041485      -0.00008612       0.00003159
W       31.20780965      64.57127451       0.54333828  F      -0.00047424      -0.00007895       0.00002442
W       29.90826993      66.82385108      -1.32237722  F      -0.00051983      -0.00005528       0.00002646
W       32.50870782      66.82377591      -0.39890450  F      -0.00039059      -0.00004065       0.00002690
W       35.10905544      66.82368109       0.52513440  F      -0.00038191      -0.00004745       0.00003199
W       33.80970812      69.07631631      -1.34313244  F      -0.00035944      -0.00001688       0.00003073
W       36.41005361      69.07624764      -0.42076095  F      -0.00043893      -0.00003544       0.00004089
W       31.20927485      69.07637064       0.49360063  F      -0.00043387      -0.00001893       0.00002810
W       29.90983550      71.32894148      -1.37112536  F      -0.00049038       0.00000488       0.00002845
W       32.51036391      71.32892064      -0.45096199  F      -0.00036809       0.00000730       0.00002934
W       35.11081604      71.32889715       0.46929035  F      -0.00038426       0.00000078       0.00003638
W       33.81153340      73.58150181       1.36136077  F      -0.00034662       0.00002699       0.00003131
W       36.41202294      73.58151821       2.27957894  F      -0.00042472       0.00002197       0.00004113
W       31.21097715      73.58149107       3.20169664  F      -0.00041487       0.00003101       0.00002837
W       29.91151385      75.83403088       1.33864242  F      -0.00048003       0.00005852       0.00002704
W       32.51216739      75.83406537       2.25544645  F      -0.00035826       0.00004992       0.00002765
W       35.11276583      75.83411473       3.17184585  F      -0.00035919       0.00004773       0.00003332
W       33.81338367      78.08666699       1.30764502  F      -0.00032974       0.00006660       0.00002667
W       36.41402973      78.08676210       2.22183381  F      -0.00037960       0.00007270       0.00003321
W       31.21269410      78.08659599       3.15148938  F      -0.00041843       0.00007811       0.00002529
W       29.91309952      80.33910401       1.29066192  F      -0.00048522       0.00011060       0.00002252
W       32.51386715      80.33918734       2.20431713  F      -0.00036724       0.00009270       0.00002257
W       35.11459295      80.33930127       3.11713831  F      -0.00032149       0.00008522       0.00002478
W       33.81500222      82.59181243       1.25599458  F      -0.00033116       0.00010562       0.00001907
W       36.41575540      82.59197746       2.16663827  F      -0.00032076       0.00010656       0.00002111
W       31.21421400      82.59168800       3.10297769  F      -0.00044193       0.00012922       0.00001957
W       29.91442540      84.84418044       1.24473024  F      -0.00048740       0.00016055       0.00001557
W       32.51526791      84.84430793       2.15565704  F      -0.00040244       0.00014415       0.00001552
W       35.11606595      84.84448186       3.06544138  F      -0.00030738       0.00011913       0.00001466