1979
Lattice="140.4517361287387 0.0 0.0 0.0 144.1597291770268 0.0 0.0 0.0 2.758732640168188" Properties=species:S:1:pos:R:3:fix_mask:L:1:forces:R:3 energy=-18666.15804942501 pbc="T T T"
W       13.00100747      55.56156128      -0.33637448  T       0.00000000       0.00000000       0.00000000
W       13.00186187      60.06653781      -0.36890506  T       0.00000000       0.00000000       0.00000000
W       11.70192196      62.31903500       0.53237443  T       0.00000000       0.00000000       0.00000000
W       13.00287717      64.57153442      -0.40248468  T       0.00000000       0.00000000       0.00000000
W       11.70298154      66.82403520       0.49912999  T       0.00000000       0.00000000       0.00000000
W       10.40308191      69.07653489      -1.35733334  T       0.00000000       0.00000000       0.00000000
W       13.00400619      69.07653471      -0.43675612  T       0.00000000       0.00000000       0.00000000
W       11.70411880      71.32903253       0.46542392  T       0.00000000       0.00000000       0.00000000
W       10.40420872      73.58152792       1.36834265  T       0.00000000       0.00000000       0.00000000
W       13.00518387      73.58152787       2.28741934  T       0.00000000       0.00000000       0.00000000
W       11.70526762      75.83402100       3.19038241  T       0.00000000       0.00000000       0.00000000
W       13.00633705      78.08651223       2.25300366  T       0.00000000       0.00000000       0.00000000
W       11.70635997      80.33900365       3.15693863  T       0.00000000       0.00000000       0.00000000
W       13.00739665      82.59149582       2.21914630  T       0.00000000       0.00000000       0.00000000
W       11.70733681      84.84399158       3.12420052  T       0.00000000       0.00000000       0.00000000
W       13.00830870      87.09649371       2.18622402  T       0.00000000       0.00000000       0.00000000
W       20.80226784      42.04713255      -0.22004838  T       0.00000000       0.00000000       0.00000000
W       19.50188904      44.29945489       0.67979057  T       0.00000000       0.00000000       0.00000000
W       18.20158157      46.55181651      -1.17906351  T       0.00000000       0.00000000       0.00000000
W       20.80245197      46.55187350      -0.25044583  T       0.00000000       0.00000000       0.00000000
W       16.90134444      48.80421323      -0.27906725  T       0.00000000       0.00000000       0.00000000
W       19.50219280      48.80425076       0.64869334  T       0.00000000       0.00000000       0.00000000
W       18.20200782      51.05666291      -1.21072483  T       0.00000000       0.00000000       0.00000000
W       20.80284138      51.05669210      -0.28318318  T       0.00000000       0.00000000       0.00000000
W       15.60117402      51.05663998       0.62112207  T       0.00000000       0.00000000       0.00000000
W       14.30106434      53.30909119      -1.23715717  T       0.00000000       0.00000000       0.00000000
W       16.90189130      53.30910386      -0.31115292  T       0.00000000       0.00000000       0.00000000
W       19.50271440      53.30912027       0.61543406  T       0.00000000       0.00000000       0.00000000
W       18.20265627      55.56157526      -1.24434741  T       0.00000000       0.00000000       0.00000000
W       20.80347127      55.56158596      -0.31813875  T       0.00000000       0.00000000       0.00000000
W       15.60183506      55.56156726       0.58875239  T       0.00000000       0.00000000       0.00000000
W       14.30182900      57.81404705      -1.26967325  T       0.00000000       0.00000000       0.00000000
W       16.90265622      57.81405004      -0.34498199  T       0.00000000       0.00000000       0.00000000
W       19.50347532      57.81405430       0.58019675  T       0.00000000       0.00000000       0.00000000
W       18.20353303      60.06653911      -1.27969247  T       0.00000000       0.00000000       0.00000000
W       20.80435481      60.06654065      -0.35506262  T       0.00000000       0.00000000       0.00000000
W       15.60270180      60.06653823       0.55486802  T       0.00000000       0.00000000       0.00000000
W       14.30277982      62.31903443      -1.30347064  T       0.00000000       0.00000000       0.00000000
W       16.90362952      62.31903394      -0.38027026  T       0.00000000       0.00000000       0.00000000
W       19.50447012      62.31903359       0.54328892  T       0.00000000       0.00000000       0.00000000
W       18.20461468      64.57153292      -1.31640742  T       0.00000000       0.00000000       0.00000000
W       20.80529022      64.57149398      -0.39355132  F      -0.00020358      -0.00002377       0.00001150
W       15.60374977      64.57153369       0.51978816  T       0.00000000       0.00000000       0.00000000
W       14.30387957      66.82403471      -1.33820590  T       0.00000000       0.00000000       0.00000000
W       16.90477202      66.82403417      -0.41663331  T       0.00000000       0.00000000       0.00000000
W       19.50565810      66.82403355       0.50514179  T       0.00000000       0.00000000       0.00000000
W       18.20584477      69.07653427      -1.35403538  T       0.00000000       0.00000000       0.00000000
W       20.80655728      69.07650544      -0.43311226  F      -0.00018804      -0.00000820       0.00000726
W       15.60492730      69.07653451       0.48391602  T       0.00000000       0.00000000       0.00000000
W       14.30506793      71.32903252      -1.37346910  T       0.00000000       0.00000000       0.00000000
W       16.90601618      71.32903250      -0.45360393  T       0.00000000       0.00000000       0.00000000
W       19.50696343      71.32903249       0.46629074  T       0.00000000       0.00000000       0.00000000
W       18.20713926      73.58152775       1.36668994  T       0.00000000       0.00000000       0.00000000
W       20.80791463      73.58151854       2.28561748  F      -0.00018100       0.00001088       0.00000732
W       15.60616064      73.58152782       3.20644836  T       0.00000000       0.00000000       0.00000000
W       14.30626951      75.83402071       1.34992234  T       0.00000000       0.00000000       0.00000000
W       16.90727557      75.83402039       2.26806820  T       0.00000000       0.00000000       0.00000000
W       19.50828642      75.83402002       3.18606797  T       0.00000000       0.00000000       0.00000000
W       18.20840126      78.08651094       1.32887065  T       0.00000000       0.00000000       0.00000000
W       20.80925042      78.08652048       2.24583299  F      -0.00018386       0.00002593       0.00001065
W       15.60736585      78.08651162       3.17041064  T       0.00000000       0.00000000       0.00000000
W       14.30740658      80.33900294       1.31495928  T       0.00000000       0.00000000       0.00000000
W       16.90846080      80.33900220       2.23144322  T       0.00000000       0.00000000       0.00000000
W       19.50952361      80.33900147       3.14761770  T       0.00000000       0.00000000       0.00000000
W       18.20954040      82.59149539       1.29179015  T       0.00000000       0.00000000       0.00000000
W       20.81062631      82.59149557       2.20688934  T       0.00000000       0.00000000       0.00000000
W       15.60846415      82.59149551       3.13501311  T       0.00000000       0.00000000       0.00000000
W       14.30841255      84.84399231       1.28080157  T       0.00000000       0.00000000       0.00000000
W       16.90949651      84.84399357       2.19574275  T       0.00000000       0.00000000       0.00000000
W       19.51058933      84.84399559       3.11023552  T       0.00000000       0.00000000       0.00000000
W       18.21048983      87.09650205       1.25593579  T       0.00000000       0.00000000       0.00000000
W       20.81159184      87.09650874       2.16937993  T       0.00000000       0.00000000       0.00000000
W       15.60939552      87.09649720       3.10068326  T       0.00000000       0.00000000       0.00000000
W       14.30924195      89.34900701       1.24781787  T       0.00000000       0.00000000       0.00000000
W       16.91033347      89.34901564       2.16138248  T       0.00000000       0.00000000       0.00000000
W       19.51143056      89.34902704       3.07439182  T       0.00000000       0.00000000       0.00000000
W       18.21121509      91.60155361       1.22169800  T       0.00000000       0.00000000       0.00000000
W       20.81230633      91.60157557       2.13372377  T       0.00000000       0.00000000       0.00000000
W       15.61012626      91.60153658       3.06777094  T       0.00000000       0.00000000       0.00000000
W       16.91095248      93.85408808       2.12868199  T       0.00000000       0.00000000       0.00000000
W       19.51203065      93.85411762       3.04043745  T       0.00000000       0.00000000       0.00000000
W       18.21171321      96.10666739       1.18935453  T       0.00000000       0.00000000       0.00000000
W       20.81277272      96.10671423       2.10021802  T       0.00000000       0.00000000       0.00000000
W       15.61064929      96.10662983       3.03653416  T       0.00000000       0.00000000       0.00000000
W       16.91136066      98.35922382       2.09785747  T       0.00000000       0.00000000       0.00000000
W       19.51240333      98.35928009       3.00859753  T       0.00000000       0.00000000       0.00000000
W       18.21200508     100.61185138       1.15907165  T       0.00000000       0.00000000       0.00000000
W       20.81302038     100.61193110       2.06902586  T       0.00000000       0.00000000       0.00000000
W       19.51258168     102.86451632       2.97898189  T       0.00000000       0.00000000       0.00000000
W       20.81309201     105.11722130       2.04019624  T       0.00000000       0.00000000       0.00000000
W       27.30509664      30.78615029       0.79611931  T       0.00000000       0.00000000       0.00000000
W       26.00442885      33.03826769      -1.06183148  T       0.00000000       0.00000000       0.00000000
W       28.60551563      33.03853005      -0.12900962  T       0.00000000       0.00000000       0.00000000
W       24.70380383      35.29042140      -0.16137879  T       0.00000000       0.00000000       0.00000000
W       27.30485333      35.29064358       0.77089483  T       0.00000000       0.00000000       0.00000000
W       26.00424063      37.54279808      -1.08826660  T       0.00000000       0.00000000       0.00000000
W       28.60527912      37.54301424      -0.15569441  T       0.00000000       0.00000000       0.00000000
W       23.40323039      37.54261548       0.73881000  T       0.00000000       0.00000000       0.00000000
W       22.10271632      39.79485234      -1.11992676  T       0.00000000       0.00000000       0.00000000
W       24.70368713      39.79499749      -0.18895264  T       0.00000000       0.00000000       0.00000000
W       27.30468274      39.79517144       0.74292214  T       0.00000000       0.00000000       0.00000000
W       26.00415436      42.04737849      -1.11743884  T       0.00000000       0.00000000       0.00000000
W       28.60513269      42.04754214      -0.18536431  T       0.00000000       0.00000000       0.00000000
W       23.40320096      42.04724370       0.71018621  T       0.00000000       0.00000000       0.00000000
W       22.10278813      44.29953647      -1.14949618  T       0.00000000       0.00000000       0.00000000
W       24.70370228      44.29963653      -0.21921678  T       0.00000000       0.00000000       0.00000000
W       27.30463582      44.29975957       0.71199203  T       0.00000000       0.00000000       0.00000000
W       26.00422525      46.55203222      -1.14949832  T       0.00000000       0.00000000       0.00000000
W       28.60492205      46.55201095      -0.21823356  F      -0.00018025      -0.00011468      -0.00000127
W       23.40333197      46.55194420       0.67895503  T       0.00000000       0.00000000       0.00000000
W       22.10304553      48.80429787      -1.18155531  T       0.00000000       0.00000000       0.00000000
W       24.70390542      48.80435725      -0.25225590  T       0.00000000       0.00000000       0.00000000
W       27.30455535      48.80431241       0.67796717  F      -0.00018946      -0.00009876       0.00000128
W       26.00429521      51.05667129      -1.18449927  F      -0.00020240      -0.00008621       0.00000370
W       28.60491784      51.05660867      -0.25440862  F      -0.00027421      -0.00013123       0.00000332
W       23.40367656      51.05672940       0.64510085  T       0.00000000       0.00000000       0.00000000
W       22.10353455      53.30914162      -1.21604994  T       0.00000000       0.00000000       0.00000000
W       24.70414077      53.30907917      -0.28803933  F      -0.00021297      -0.00007617       0.00000544
W       27.30473686      53.30900294       0.64083313  F      -0.00029065      -0.00012058       0.00000573
W       26.00468117      55.56144415      -1.22236554  F      -0.00028661      -0.00011511       0.00000465
W       28.60520598      55.56134692      -0.29385679  F      -0.00026800      -0.00010921       0.00000775
W       23.40409690      55.56152927       0.60873620  F      -0.00019036      -0.00005989       0.00000616
W       22.10428601      57.81406029      -1.25279860  T       0.00000000       0.00000000       0.00000000
W       24.70476358      57.81393522      -0.32640399  F      -0.00021749      -0.00008303       0.00000164
W       27.30525662      57.81383451       0.60074005  F      -0.00025991      -0.00009497       0.00001149
W       26.00541195      60.06636280      -1.26283277  F      -0.00025861      -0.00005946       0.00001263
W       28.60586735      60.06624820      -0.33632885  F      -0.00021579      -0.00005726       0.00001485
W       23.40490103      60.06646580       0.57011097  F      -0.00019398      -0.00002932       0.00000556
W       22.10506920      62.31898067      -1.29145320  F      -0.00021937      -0.00002102       0.00001086
W       24.70563271      62.31890305      -0.36698251  F      -0.00028929      -0.00003406       0.00001421
W       27.30612028      62.31880343       0.55805444  F      -0.00024267      -0.00003936       0.00001695
W       26.00644329      64.57136221      -1.30544016  F      -0.00027997      -0.00003238       0.00001767
W       28.60690964      64.57127339      -0.38131858  F      -0.00020457      -0.00002654       0.00002045
W       23.40590784      64.57143544       0.52966071  F      -0.00030769      -0.00003611       0.00001355
W       22.10624019      66.82397044      -1.33155873  F      -0.00024612      -0.00002829       0.00000696
W       24.70681522      66.82391545      -0.40924742  F      -0.00029597      -0.00002949       0.00001919
W       27.30733110      66.82385235       0.51338487  F      -0.00022793      -0.00001977       0.00002139
W       26.00777838      69.07641877      -1.34951181  F      -0.00025463      -0.00001204       0.00002016
W       28.60829628      69.07637218      -0.42805009  F      -0.00019536      -0.00000841       0.00002431
W       23.40720404      69.07646134       0.48796572  F      -0.00028647      -0.00001701       0.00001378
W       22.10759275      71.32899745      -1.37248763  F      -0.00022724       0.00000136       0.00000609
W       24.70822253      71.32896945      -0.45248710  F      -0.00027055       0.00000208       0.00001995
W       27.30880474      71.32894486       0.46755792  F      -0.00021033       0.00000302       0.00002311
W       26.00928222      73.58149447       1.36452546  F      -0.00024158       0.00001742       0.00002030
W       28.60988944      73.58149357       2.28320273  F      -0.00018903       0.00001265       0.00002493
W       23.40863018      73.58150312       3.20447916  F      -0.00027351       0.00001966       0.00001388
W       22.10899182      75.83401979       1.34519101  F      -0.00022662       0.00003043       0.00000700
W       24.70970656      75.83402194       2.26285320  F      -0.00026848       0.00003295       0.00001900
W       27.31038211      75.83403758       3.18027896  F      -0.00020801       0.00002583       0.00002208
W       26.01080005      78.08655658       1.32012388  F      -0.00024533       0.00003970       0.00001830
W       28.61150544      78.08660152       2.23607185  F      -0.00018647       0.00003185       0.00002196
W       23.41005581      78.08652893       3.16251000  F      -0.00027194       0.00003977       0.00001243
W       22.11034098      80.33901609       1.30472147  F      -0.00018987       0.00002637       0.00000681
W       24.71113820      80.33905518       2.22014634  F      -0.00025590       0.00004962       0.00001484
W       27.31189714      80.33911273       3.13508151  F      -0.00021325       0.00004673       0.00001819
W       26.01219255      82.59160944       1.27690122  F      -0.00024453       0.00006861       0.00001524
W       28.61297201      82.59169412       2.19034388  F      -0.00019162       0.00005307       0.00001712
W       23.41139397      82.59155154       3.12153689  F      -0.00020744       0.00006176       0.00000462
W       22.11150021      84.84403812       1.26549422  F      -0.00017403       0.00004443       0.00000805
W       24.71237707      84.84409633       2.17889105  F      -0.00025833       0.00007697       0.00000893
W       27.31320539      84.84418266       3.09159831  F      -0.00023553       0.00007060       0.00001258
W       26.01333931      87.09665888       1.23560619  F      -0.00024806       0.00007065       0.00001047
W       28.61416956      87.09678689       2.14689396  F      -0.00021018       0.00006655       0.00001082
W       23.41246908      87.09657080       3.08221849  F      -0.00018687       0.00004850       0.00000801
W       22.11253273      89.34904213       1.22803601  T       0.00000000       0.00000000       0.00000000
W       24.71338796      89.34913441       2.13970261  F      -0.00016942       0.00004938       0.00000678
W       27.31424227      89.34926058       3.05053185  F      -0.00021902       0.00006961       0.00000841
W       26.01423104      91.60173667       1.19679115  F      -0.00014906       0.00005298       0.00000472
W       28.61506377      91.60190793       2.10633895  F      -0.00019143       0.00007545       0.00000530
W       23.41339861      91.60160398       3.04502942  T       0.00000000       0.00000000       0.00000000
W       22.11310696      93.85415508       1.19275248  T       0.00000000       0.00000000       0.00000000
W       24.71417899      93.85420280       2.10299912  T       0.00000000       0.00000000       0.00000000
W       27.31498583      93.85438429       3.01234144  F      -0.00013257       0.00006000       0.00000240
W       26.01486729      96.10684659       1.16079061  T       0.00000000       0.00000000       0.00000000
W       28.61564590      96.10708324       2.06902143  F      -0.00012214       0.00007055      -0.00000000
W       23.41382521      96.10677288       3.01030692  T       0.00000000       0.00000000       0.00000000
W       22.11343675      98.35934949       1.15986052  T       0.00000000       0.00000000       0.00000000
W       24.71445750      98.35943535       2.06902384  T       0.00000000       0.00000000       0.00000000
W       27.31546139      98.35954190       2.97725480  T       0.00000000       0.00000000       0.00000000
W       26.01500409     100.61214731       1.12774088  T       0.00000000       0.00000000       0.00000000
W       28.61596378     100.61229304       2.03504657  T       0.00000000       0.00000000       0.00000000
W       23.41402138     100.61202837       2.97818929  T       0.00000000       0.00000000       0.00000000
W       22.11356468     102.86462411       1.12945429  T       0.00000000       0.00000000       0.00000000
W       24.71452855     102.86475420       2.03783201  T       0.00000000       0.00000000       0.00000000
W       27.31546901     102.86491139       2.94529568  T       0.00000000       0.00000000       0.00000000
W       26.01496324     105.11752829       1.09761301  T       0.00000000       0.00000000       0.00000000
W       28.61585962     105.11772765       2.00432500  T       0.00000000       0.00000000       0.00000000
W       23.41403929     105.11736126       2.94869758  T       0.00000000       0.00000000       0.00000000
W       22.11353981     107.36996748       1.10151990  T       0.00000000       0.00000000       0.00000000
W       24.71444968     107.37014285       2.00937059  T       0.00000000       0.00000000       0.00000000
W       27.31533297     107.37034973       2.91635309  T       0.00000000       0.00000000       0.00000000
W       26.01480328     109.62296725       1.07028230  T       0.00000000       0.00000000       0.00000000
W       28.61564715     109.62321534       1.97666944  T       0.00000000       0.00000000       0.00000000
W       27.31510885     111.87583098       2.89023617  T       0.00000000       0.00000000       0.00000000
W       28.61537588     114.12872894       1.95183097  T       0.00000000       0.00000000       0.00000000
W       36.40967200      24.03078964      -0.03938286  T       0.00000000       0.00000000       0.00000000
W       32.50769763      26.28237220      -0.07262822  T       0.00000000       0.00000000       0.00000000
W       35.10889692      26.28278268       0.86223029  T       0.00000000       0.00000000       0.00000000
W       33.80812604      28.53478142      -0.99551784  T       0.00000000       0.00000000       0.00000000
W       36.40933255      28.53520473      -0.06004469  T       0.00000000       0.00000000       0.00000000
W       31.20694783      28.53440181       0.82865001  T       0.00000000       0.00000000       0.00000000
W       29.90621724      30.78645181      -1.02931559  T       0.00000000       0.00000000       0.00000000
W       32.50736815      30.78679502      -0.09512520  T       0.00000000       0.00000000       0.00000000
W       35.10855045      30.78718352       0.84001217  T       0.00000000       0.00000000       0.00000000
W       33.80778451      33.03918046      -1.01929970  T       0.00000000       0.00000000       0.00000000
W       36.40897042      33.03957768      -0.08354947  T       0.00000000       0.00000000       0.00000000
W       31.20663343      33.03883273       0.80472359  T       0.00000000       0.00000000       0.00000000
W       29.90593317      35.29090328      -1.05464470  T       0.00000000       0.00000000       0.00000000
W       32.50704667      35.29120599      -0.12045756  T       0.00000000       0.00000000       0.00000000
W       35.10819673      35.29155739       0.81480052  T       0.00000000       0.00000000       0.00000000
W       33.80745721      37.54357110      -1.04619750  T       0.00000000       0.00000000       0.00000000
W       36.40840495      37.54373386      -0.11037592  F      -0.00012226      -0.00015319      -0.00000556
W       31.20634995      37.54326977       0.77787683  T       0.00000000       0.00000000       0.00000000
W       29.90570772      39.79537989      -1.08294551  T       0.00000000       0.00000000       0.00000000
W       32.50661368      39.79550598      -0.14900079  F      -0.00014698      -0.00013485      -0.00000616
W       35.10758763      39.79571326       0.78613762  F      -0.00018051      -0.00014671      -0.00000164
W       33.80683210      42.04772060      -1.07663463  F      -0.00024287      -0.00019055      -0.00000465
W       36.40774694      42.04785665      -0.14100964  F      -0.00021199      -0.00017746      -0.00001148
W       31.20595677      42.04760218       0.74777386  F      -0.00017240      -0.00014631      -0.00000544
W       29.90539175      44.29977305      -1.11449946  F      -0.00017583      -0.00013215      -0.00000370
W       32.50618884      44.29982261      -0.18110151  F      -0.00024966      -0.00019136      -0.00000572
W       35.10701035      44.29988979       0.75358603  F      -0.00022840      -0.00017741      -0.00000775
W       33.80638507      46.55201521      -1.11097069  F      -0.00022811      -0.00016409      -0.00000543
W       36.40715062      46.55203491      -0.17594021  F      -0.00017251      -0.00013123      -0.00000834
W       31.20564893      46.55200967       0.71413970  F      -0.00025070      -0.00017183      -0.00000331
W       29.90522268      48.80427413      -1.14950087  F      -0.00025894      -0.00014950       0.00000000
W       32.50588311      48.80423182      -0.21705196  F      -0.00023095      -0.00014499      -0.00000192
W       35.10655653      48.80419349       0.71674522  F      -0.00017604      -0.00011870      -0.00000440
W       33.80610928      51.05645203      -1.14950396  F      -0.00018212      -0.00010522      -0.00000000
W       36.40671440      51.05637013      -0.21560414  F      -0.00017915      -0.00011189      -0.00000295
W       31.20551641      51.05653336       0.67677999  F      -0.00024104      -0.00012758       0.00000192
W       29.90529089      53.30890955      -1.18803351  F      -0.00025624      -0.00011560       0.00000543
W       32.50582011      53.30880184      -0.25702026  F      -0.00019083      -0.00009324       0.00000440
W       35.10634110      53.30868314       0.67532532  F      -0.00018641      -0.00009938       0.00000294
W       33.80614960      55.56109208      -1.19235783  F      -0.00018996      -0.00008560       0.00000852
W       36.40659047      55.56093605      -0.26025346  F      -0.00024194      -0.00011929       0.00000789
W       31.20569093      55.56122880       0.63566589  F      -0.00020000      -0.00008395       0.00000834
W       29.90571377      57.81371653      -1.22998423  F      -0.00020597      -0.00007402       0.00001236
W       32.50613455      57.81357763      -0.30095451  F      -0.00018909      -0.00007090       0.00001345
W       35.10652056      57.81341468       0.62928393  F      -0.00024105      -0.00009961       0.00001504
W       33.80664020      60.06596457      -1.23936066  F      -0.00023353      -0.00007809       0.00002069
W       36.40694938      60.06577907      -0.30980444  F      -0.00029447      -0.00010974       0.00002275
W       31.20627701      60.06611787       0.59101965  F      -0.00018663      -0.00005454       0.00001701
W       29.90654699      62.31869011      -1.27497655  F      -0.00018990      -0.00003827       0.00001926
W       32.50691842      62.31855789      -0.34848263  F      -0.00022110      -0.00005605       0.00002435
W       35.10722659      62.31839742       0.57896465  F      -0.00028530      -0.00008466       0.00002892
W       33.80765529      64.57104312      -1.28993748  F      -0.00027044      -0.00005984       0.00003271
W       36.40791489      64.57088450      -0.36367189  F      -0.00032444      -0.00008164       0.00003596
W       31.20731516      64.57116910       0.54338657  F      -0.00020713      -0.00003601       0.00002590
W       29.90778791      66.82377816      -1.32232832  F      -0.00019620      -0.00002026       0.00002576
W       32.50818329      66.82368958      -0.39884287  F      -0.00024910      -0.00003652       0.00003386
W       35.10850252      66.82357860       0.52521051  F      -0.00030441      -0.00005541       0.00003905
W       33.80915771      69.07625347      -1.34305685  F      -0.00028296      -0.00003107       0.00003991
W       36.40947309      69.07616824      -0.42066724  F      -0.00033697      -0.00004409       0.00004264
W       31.20875965      69.07631873       0.49366079  F      -0.00022219      -0.00001636       0.00003232
W       29.90934011      71.32892104      -1.37106980  F      -0.00019712      -0.00000039       0.00002898
W       32.50982350      71.32889497      -0.45089117  F      -0.00025515      -0.00000908       0.00003809
W       35.11023955      71.32886185       0.46937921  F      -0.00030332      -0.00001999       0.00004199
W       33.81097031      73.58150692       1.36144050  F      -0.00027587       0.00000234       0.00004024
W       36.41142082      73.58151557       2.27967804  F      -0.00032811      -0.00000325       0.00004113
W       31.21045516      73.58149845       3.20175976  F      -0.00021984       0.00000846       0.00003343
W       29.91102192      75.83406563       1.33869606  F      -0.00018979       0.00002088       0.00002748
W       32.51162537      75.83410505       2.25551464  F      -0.00024229       0.00002052       0.00003583
W       35.11218156      75.83415574       3.17193091  F      -0.00028696       0.00001639       0.00003821
W       33.81282573      78.08674343       1.30771456  F      -0.00025497       0.00003480       0.00003463
W       36.41342749      78.08684482       2.22191859  F      -0.00029891       0.00003492       0.00003355
W       31.21218179      78.08666315       3.15154521  F      -0.00020204       0.00003156       0.00002880
W       29.91263085      80.33918988       1.29070552  F      -0.00017758       0.00003921       0.00002184
W       32.51334185      80.33929039       2.20437156  F      -0.00021419       0.00004507       0.00002808
W       35.11402351      80.33941900       3.11720424  F      -0.00025965       0.00005035       0.00003011
W       33.81447025      82.59195432       1.25604343  F      -0.00022091       0.00005996       0.00002465
W       36.41518056      82.59214051       2.16669483  F      -0.00026060       0.00006831       0.00002353
W       31.21373160      82.59180797       3.10301844  F      -0.00017712       0.00004838       0.00002045
W       29.91400375      84.84430479       1.24475895  F      -0.00017660       0.00005501       0.00001431
W       32.51478016      84.84446348       2.15569151  F      -0.00017774       0.00005837       0.00001722
W       35.11553394      84.84466471       3.06548031  F      -0.00022157       0.00007543       0.00001891