1979
Lattice="140.45173613000506 0.0 0.0 0.0 144.1597291783266 0.0 0.0 0.0 2.7587326401930605" Properties=species:S:1:pos:R:3:fix_mask:L:1:forces:R:3 energy=-18659.732624991975 pbc="T T T"
W       13.00100002      55.56156130      -0.33637438  T       0.00000000       0.00000000       0.00000000
W       13.00185610      60.06653779      -0.36890496  T       0.00000000       0.00000000       0.00000000
W       11.70191725      62.31903498       0.53237452  T       0.00000000       0.00000000       0.00000000
W       13.00287340      64.57153441      -0.40248461  T       0.00000000       0.00000000       0.00000000
W       11.70297892      66.82403520       0.49913004  T       0.00000000       0.00000000       0.00000000
W       10.40308043      69.07653489      -1.35733330  T       0.00000000       0.00000000       0.00000000
W       13.00400464      69.07653471      -0.43675609  T       0.00000000       0.00000000       0.00000000
W       11.70411842      71.32903253       0.46542393  T       0.00000000       0.00000000       0.00000000
W       10.40420946      73.58152792       1.36834263  T       0.00000000       0.00000000       0.00000000
W       13.00518464      73.58152787       2.28741932  T       0.00000000       0.00000000       0.00000000
W       11.70526950      75.83402099       3.19038237  T       0.00000000       0.00000000       0.00000000
W       13.00634009      78.08651222       2.25300359  T       0.00000000       0.00000000       0.00000000
W       11.70636401      80.33900364       3.15693854  T       0.00000000       0.00000000       0.00000000
W       13.00740179      82.59149581       2.21914620  T       0.00000000       0.00000000       0.00000000
W       11.70734277      84.84399157       3.12420041  T       0.00000000       0.00000000       0.00000000
W       13.00831564      87.09649372       2.18622390  T       0.00000000       0.00000000       0.00000000
W       20.80225718      42.04713370      -0.22004845  T       0.00000000       0.00000000       0.00000000
W       19.50187859      44.29945569       0.67979054  T       0.00000000       0.00000000       0.00000000
W       18.20157146      46.55181704      -1.17906350  T       0.00000000       0.00000000       0.00000000
W       20.80244168      46.55187415      -0.25044584  T       0.00000000       0.00000000       0.00000000
W       16.90133481      48.80421356      -0.27906721  T       0.00000000       0.00000000       0.00000000
W       19.50218295      48.80425116       0.64869336  T       0.00000000       0.00000000       0.00000000
W       18.20199855      51.05666314      -1.21072478  T       0.00000000       0.00000000       0.00000000
W       20.80283187      51.05669239      -0.28318314  T       0.00000000       0.00000000       0.00000000
W       15.60116500      51.05664016       0.62112214  T       0.00000000       0.00000000       0.00000000
W       14.30105605      53.30909127      -1.23715709  T       0.00000000       0.00000000       0.00000000
W       16.90188276      53.30910397      -0.31115284  T       0.00000000       0.00000000       0.00000000
W       19.50270558      53.30912042       0.61543413  T       0.00000000       0.00000000       0.00000000
W       18.20264829      55.56157532      -1.24434732  T       0.00000000       0.00000000       0.00000000
W       20.80346300      55.56158604      -0.31813866  T       0.00000000       0.00000000       0.00000000
W       15.60182735      55.56156730       0.58875249  T       0.00000000       0.00000000       0.00000000
W       14.30182222      57.81404705      -1.26967315  T       0.00000000       0.00000000       0.00000000
W       16.90264918      57.81405005      -0.34498189  T       0.00000000       0.00000000       0.00000000
W       19.50346801      57.81405432       0.58019685  T       0.00000000       0.00000000       0.00000000
W       18.20352678      60.06653910      -1.27969237  T       0.00000000       0.00000000       0.00000000
W       20.80434829      60.06654065      -0.35506252  T       0.00000000       0.00000000       0.00000000
W       15.60269580      60.06653822       0.55486812  T       0.00000000       0.00000000       0.00000000
W       14.30277492      62.31903441      -1.30347055  T       0.00000000       0.00000000       0.00000000
W       16.90362440      62.31903392      -0.38027016  T       0.00000000       0.00000000       0.00000000
W       19.50446477      62.31903357       0.54328901  T       0.00000000       0.00000000       0.00000000
W       18.20461056      64.57153290      -1.31640734  T       0.00000000       0.00000000       0.00000000
W       20.80505289      64.57146813      -0.39354167  F       0.00025292       0.00002928      -0.00001163
W       15.60374583      64.57153367       0.51978824  T       0.00000000       0.00000000       0.00000000
W       14.30387683      66.82403471      -1.33820584  T       0.00000000       0.00000000       0.00000000
W       16.90476915      66.82403416      -0.41663325  T       0.00000000       0.00000000       0.00000000
W       19.50565509      66.82403354       0.50514185  T       0.00000000       0.00000000       0.00000000
W       18.20584307      69.07653427      -1.35403534  T       0.00000000       0.00000000       0.00000000
W       20.80632811      69.07649898      -0.43310725  F       0.00020201       0.00002060      -0.00000385
W       15.60492568      69.07653450       0.48391605  T       0.00000000       0.00000000       0.00000000
W       14.30506753      71.32903252      -1.37346909  T       0.00000000       0.00000000       0.00000000
W       16.90601577      71.32903250      -0.45360392  T       0.00000000       0.00000000       0.00000000
W       19.50696299      71.32903249       0.46629075  T       0.00000000       0.00000000       0.00000000
W       18.20714012      73.58152775       1.36668992  T       0.00000000       0.00000000       0.00000000
W       20.80769638      73.58153352       2.28562241  F       0.00019515      -0.00000590      -0.00000418
W       15.60616145      73.58152782       3.20644834  T       0.00000000       0.00000000       0.00000000
W       14.30627148      75.83402071       1.34992230  T       0.00000000       0.00000000       0.00000000
W       16.90727764      75.83402038       2.26806815  T       0.00000000       0.00000000       0.00000000
W       19.50828859      75.83402001       3.18606792  T       0.00000000       0.00000000       0.00000000
W       18.20840460      78.08651093       1.32887057  T       0.00000000       0.00000000       0.00000000
W       20.80904278      78.08655238       2.24584115  F       0.00021965      -0.00002514      -0.00001066
W       15.60736904      78.08651161       3.17041057  T       0.00000000       0.00000000       0.00000000
W       14.30741079      80.33900292       1.31495919  T       0.00000000       0.00000000       0.00000000
W       16.90846520      80.33900218       2.23144313  T       0.00000000       0.00000000       0.00000000
W       19.50952822      80.33900145       3.14761760  T       0.00000000       0.00000000       0.00000000
W       18.20954598      82.59149537       1.29179003  T       0.00000000       0.00000000       0.00000000
W       20.81063215      82.59149556       2.20688922  T       0.00000000       0.00000000       0.00000000
W       15.60846951      82.59149549       3.13501300  T       0.00000000       0.00000000       0.00000000
W       14.30841875      84.84399230       1.28080145  T       0.00000000       0.00000000       0.00000000
W       16.90950296      84.84399357       2.19574262  T       0.00000000       0.00000000       0.00000000
W       19.51059604      84.84399559       3.11023540  T       0.00000000       0.00000000       0.00000000
W       18.21049729      87.09650207       1.25593566  T       0.00000000       0.00000000       0.00000000
W       20.81159958      87.09650878       2.16937980  T       0.00000000       0.00000000       0.00000000
W       15.60940271      87.09649722       3.10068313  T       0.00000000       0.00000000       0.00000000
W       14.30924978      89.34900705       1.24781774  T       0.00000000       0.00000000       0.00000000
W       16.91034156      89.34901571       2.16138235  T       0.00000000       0.00000000       0.00000000
W       19.51143893      89.34902713       3.07439170  T       0.00000000       0.00000000       0.00000000
W       18.21122398      91.60155377       1.22169788  T       0.00000000       0.00000000       0.00000000
W       20.81231549      91.60157577       2.13372365  T       0.00000000       0.00000000       0.00000000
W       15.61013489      91.60153670       3.06777082  T       0.00000000       0.00000000       0.00000000
W       16.91096180      93.85408833       2.12868188  T       0.00000000       0.00000000       0.00000000
W       19.51204021      93.85411792       3.04043734  T       0.00000000       0.00000000       0.00000000
W       18.21172308      96.10666780       1.18935444  T       0.00000000       0.00000000       0.00000000
W       20.81278280      96.10671474       2.10021794  T       0.00000000       0.00000000       0.00000000
W       15.61065896      96.10663017       3.03653406  T       0.00000000       0.00000000       0.00000000
W       16.91137079      98.35922436       2.09785739  T       0.00000000       0.00000000       0.00000000
W       19.51241363      98.35928075       3.00859746  T       0.00000000       0.00000000       0.00000000
W       18.21201554     100.61185218       1.15907159  T       0.00000000       0.00000000       0.00000000
W       20.81303095     100.61193207       2.06902581  T       0.00000000       0.00000000       0.00000000
W       19.51259234     102.86451747       2.97898185  T       0.00000000       0.00000000       0.00000000
W       20.81310273     105.11722287       2.04019623  T       0.00000000       0.00000000       0.00000000
W       27.30508681      30.78615443       0.79611913  T       0.00000000       0.00000000       0.00000000
W       26.00441865      33.03827108      -1.06183166  T       0.00000000       0.00000000       0.00000000
W       28.60550568      33.03853396      -0.12900980  T       0.00000000       0.00000000       0.00000000
W       24.70379335      35.29042410      -0.16137894  T       0.00000000       0.00000000       0.00000000
W       27.30484302      35.29064672       0.77089466  T       0.00000000       0.00000000       0.00000000
W       26.00423007      37.54280055      -1.08826675  T       0.00000000       0.00000000       0.00000000
W       28.60526871      37.54301714      -0.15569458  T       0.00000000       0.00000000       0.00000000
W       23.40321973      37.54261758       0.73880986  T       0.00000000       0.00000000       0.00000000
W       22.10270560      39.79485392      -1.11992686  T       0.00000000       0.00000000       0.00000000
W       24.70367643      39.79499936      -0.18895276  T       0.00000000       0.00000000       0.00000000
W       27.30467211      39.79517366       0.74292200  T       0.00000000       0.00000000       0.00000000
W       26.00414364      42.04738014      -1.11743895  T       0.00000000       0.00000000       0.00000000
W       28.60512201      42.04754412      -0.18536445  T       0.00000000       0.00000000       0.00000000
W       23.40319025      42.04724508       0.71018613  T       0.00000000       0.00000000       0.00000000
W       22.10277755      44.29953744      -1.14949623  T       0.00000000       0.00000000       0.00000000
W       24.70369162      44.29963770      -0.21921685  T       0.00000000       0.00000000       0.00000000
W       27.30462511      44.29976099       0.71199194  T       0.00000000       0.00000000       0.00000000
W       26.00421468      46.55203319      -1.14949837  T       0.00000000       0.00000000       0.00000000
W       28.60467143      46.55186039      -0.21823478  F       0.00017995       0.00011673       0.00000047
W       23.40332153      46.55194499       0.67895500  T       0.00000000       0.00000000       0.00000000
W       22.10303547      48.80429837      -1.18155530  T       0.00000000       0.00000000       0.00000000
W       24.70389517      48.80435787      -0.25225591  T       0.00000000       0.00000000       0.00000000
W       27.30429352      48.80418125       0.67796828  F       0.00019115       0.00009736      -0.00000048
W       26.00402289      51.05655858      -1.18449596  F       0.00021183       0.00008824      -0.00000187
W       28.60445196      51.05638846      -0.25440520  F       0.00023166       0.00010830       0.00000082
W       23.40366681      51.05672976       0.64510088  T       0.00000000       0.00000000       0.00000000
W       22.10352546      53.30914182      -1.21604988  T       0.00000000       0.00000000       0.00000000
W       24.70386657      53.30898501      -0.28803465  F       0.00024085       0.00009089      -0.00000421
W       27.30426462      53.30881103       0.64083883  F       0.00025907       0.00011252       0.00000120
W       26.00423710      55.56127888      -1.22236128  F       0.00027127       0.00013502       0.00000432
W       28.60458753      55.56110599      -0.29384749  F       0.00017544       0.00008542       0.00000606
W       23.40386012      55.56145944       0.60874127  F       0.00022507       0.00007603      -0.00000614
W       22.10427840      57.81406033      -1.25279850  T       0.00000000       0.00000000       0.00000000
W       24.70442148      57.81382200      -0.32640323  F       0.00018378       0.00010415       0.00000932
W       27.30468632      57.81364464       0.60075225  F       0.00017314       0.00009412       0.00000332
W       26.00489509      60.06624307      -1.26282011  F       0.00018215       0.00005829       0.00000328
W       28.60516787      60.06606112      -0.33630901  F       0.00010068       0.00004264       0.00000915
W       23.40461569      60.06641957       0.57011516  F       0.00016766       0.00002446       0.00000282
W       22.10478951      62.31895143      -1.29144412  F       0.00024181       0.00001667      -0.00000680
W       24.70514220      62.31883529      -0.36696855  F       0.00024455       0.00002730       0.00000231
W       27.30545455      62.31867998       0.55807594  F       0.00013446       0.00003688       0.00001071
W       26.00581613      64.57128246      -1.30541915  F       0.00018333       0.00004012       0.00001193
W       28.60613899      64.57115834      -0.38128868  F       0.00007048       0.00002861       0.00001763
W       23.40545783      64.57138458       0.52967341  F       0.00029961       0.00004630       0.00000170
W       22.10590763      66.82393946      -1.33155337  F       0.00024108       0.00004968       0.00000545
W       24.70626114      66.82386522      -0.40922759  F       0.00021840       0.00004909       0.00000511
W       27.30661659      66.82378434       0.51341385  F       0.00010225       0.00003076       0.00001576
W       26.00714034      69.07638953      -1.34948717  F       0.00015030       0.00002997       0.00001231
W       28.60751610      69.07633450      -0.42801426  F       0.00005904       0.00001611       0.00001914
W       23.40675091      69.07644093       0.48797801  F       0.00024658       0.00004104       0.00000349
W       22.10727503      71.32900292      -1.37248365  F       0.00021036       0.00001471       0.00000587
W       24.70768351      71.32897472      -0.45246659  F       0.00019455       0.00001964       0.00000345
W       27.30810420      71.32894980       0.46758943  F       0.00009758       0.00001507       0.00001472
W       26.00867041      73.58153338       1.36455020  F       0.00015083       0.00000724       0.00001127
W       28.60914230      73.58153974       2.28323894  F       0.00006621       0.00000635       0.00001778
W       23.40819631      73.58153444       3.20449142  F       0.00023948      -0.00000335       0.00000253
W       22.10868775      75.83406074       1.34519607  F       0.00022272      -0.00002417       0.00000430
W       24.70919631      75.83408210       2.26287259  F       0.00020584      -0.00000928       0.00000368
W       27.30972288      75.83411325       3.18030847  F       0.00010857       0.00000241       0.00001355
W       26.01023761      78.08664707       1.32014533  F       0.00016974      -0.00000889       0.00000954
W       28.61081811      78.08671744       2.23610296  F       0.00008136      -0.00000405       0.00001530
W       23.40965644      78.08659108       3.16252102  F       0.00025956      -0.00002133       0.00000179
W       22.11010181      80.33905511       1.30472641  F       0.00018910      -0.00001587      -0.00000011
W       24.71069994      80.33914365       2.22016053  F       0.00020806      -0.00002643       0.00000224
W       27.31130795      80.33923989       3.13510450  F       0.00012825      -0.00001759       0.00001018
W       26.01171486      82.59173815       1.27691706  F       0.00018051      -0.00005473       0.00000400
W       28.61236586      82.59185958       2.19036662  F       0.00010414      -0.00003267       0.00001028
W       23.41110699      82.59163415       3.12154020  F       0.00018734      -0.00006258       0.00000733
W       22.11130791      84.84409018       1.26550043  F       0.00020690      -0.00004884      -0.00000752
W       24.71200955      84.84420682       2.17889920  F       0.00025064      -0.00007887       0.00000302
W       27.31269739      84.84433758       3.09161311  F       0.00017264      -0.00006006       0.00000857
W       26.01295662      87.09677799       1.23561655  F       0.00023068      -0.00006153       0.00000181
W       28.61366302      87.09696209       2.14690740  F       0.00015327      -0.00006169       0.00000846
W       23.41225155      87.09663326       3.08222502  F       0.00021244      -0.00004707      -0.00000526
W       22.11254138      89.34904225       1.22803588  T       0.00000000       0.00000000       0.00000000
W       24.71317755      89.34920448       2.13970830  F       0.00018059      -0.00004031      -0.00000297
W       27.31387243      89.34939337       3.05054055  F       0.00020010      -0.00006081       0.00000242
W       26.01403421      91.60181623       1.19679512  F       0.00015451      -0.00004471      -0.00000167
W       28.61471390      91.60206115       2.10634454  F       0.00017869      -0.00007152       0.00000177
W       23.41340803      91.60160424       3.04502931  T       0.00000000       0.00000000       0.00000000
W       22.11311675      93.85415546       1.19275238  T       0.00000000       0.00000000       0.00000000
W       24.71418901      93.85420328       2.10299903  T       0.00000000       0.00000000       0.00000000
W       27.31480212      93.85447632       3.01234344  F       0.00013562      -0.00005630      -0.00000082
W       26.01487773      96.10684737       1.16079054  T       0.00000000       0.00000000       0.00000000
W       28.61547291      96.10719024       2.06902137  F       0.00012316      -0.00007109      -0.00000000
W       23.41383548      96.10677351       3.01030684  T       0.00000000       0.00000000       0.00000000
W       22.11344719      98.35935029       1.15986045  T       0.00000000       0.00000000       0.00000000
W       24.71446808      98.35943632       2.06902379  T       0.00000000       0.00000000       0.00000000
W       27.31547206      98.35954309       2.97725477  T       0.00000000       0.00000000       0.00000000
W       26.01501480     100.61214872       1.12774085  T       0.00000000       0.00000000       0.00000000
W       28.61597450     100.61229474       2.03504656  T       0.00000000       0.00000000       0.00000000
W       23.41403204     100.61202953       2.97818926  T       0.00000000       0.00000000       0.00000000
W       22.11357539     102.86462548       1.12945427  T       0.00000000       0.00000000       0.00000000
W       24.71453927     102.86475582       2.03783199  T       0.00000000       0.00000000       0.00000000
W       27.31547970     102.86491333       2.94529568  T       0.00000000       0.00000000       0.00000000
W       26.01497388     105.11753048       1.09761302  T       0.00000000       0.00000000       0.00000000
W       28.61587014     105.11773023       2.00432502  T       0.00000000       0.00000000       0.00000000
W       23.41405000     105.11736311       2.94869758  T       0.00000000       0.00000000       0.00000000
W       22.11355047     107.36996955       1.10151991  T       0.00000000       0.00000000       0.00000000
W       24.71446026     107.37014527       2.00937061  T       0.00000000       0.00000000       0.00000000
W       27.31534340     107.37035256       2.91635312  T       0.00000000       0.00000000       0.00000000
W       26.01481362     109.62297033       1.07028233  T       0.00000000       0.00000000       0.00000000
W       28.61565726     109.62321891       1.97666947  T       0.00000000       0.00000000       0.00000000
W       27.31511885     111.87583479       2.89023621  T       0.00000000       0.00000000       0.00000000
W       28.61538547     114.12873355       1.95183101  T       0.00000000       0.00000000       0.00000000
W       36.40966455      24.03079798      -0.03938300  T       0.00000000       0.00000000       0.00000000
W       32.50768913      26.28237873      -0.07262840  T       0.00000000       0.00000000       0.00000000
W       35.10888889      26.28279003       0.86223013  T       0.00000000       0.00000000       0.00000000
W       33.80811745      28.53478778      -0.99551802  T       0.00000000       0.00000000       0.00000000
W       36.40932444      28.53521193      -0.06004485  T       0.00000000       0.00000000       0.00000000
W       31.20693881      28.53440743       0.82864982  T       0.00000000       0.00000000       0.00000000
W       29.90620772      30.78645654      -1.02931578  T       0.00000000       0.00000000       0.00000000
W       32.50735901      30.78680043      -0.09512539  T       0.00000000       0.00000000       0.00000000
W       35.10854174      30.78718970       0.84001199  T       0.00000000       0.00000000       0.00000000
W       33.80777525      33.03918565      -1.01929989  T       0.00000000       0.00000000       0.00000000
W       36.40896160      33.03958366      -0.08354967  T       0.00000000       0.00000000       0.00000000
W       31.20662379      33.03883724       0.80472339  T       0.00000000       0.00000000       0.00000000
W       29.90592310      35.29090694      -1.05464488  T       0.00000000       0.00000000       0.00000000
W       32.50703690      35.29121026      -0.12045776  T       0.00000000       0.00000000       0.00000000
W       35.10818733      35.29156235       0.81480032  T       0.00000000       0.00000000       0.00000000
W       33.80744731      37.54357510      -1.04619770  T       0.00000000       0.00000000       0.00000000
W       36.40821623      37.54352058      -0.11038021  F       0.00010500       0.00013276      -0.00000283
W       31.20633976      37.54327318       0.77787665  T       0.00000000       0.00000000       0.00000000
W       29.90569722      39.79538253      -1.08294567  T       0.00000000       0.00000000       0.00000000
W       32.50642874      39.79534649      -0.14900597  F       0.00017837       0.00015680       0.00000613
W       35.10731252      39.79548430       0.78613676  F       0.00018211       0.00010690      -0.00000934
W       33.80646093      42.04742934      -1.07663900  F       0.00025263       0.00016724      -0.00000434
W       36.40729141      42.04746842      -0.14102195  F       0.00016817       0.00010272      -0.00000334
W       31.20573205      42.04742244       0.74776906  F       0.00019918       0.00016302       0.00000420
W       29.90515190      44.29960420      -1.11450287  F       0.00018238       0.00013920       0.00000186
W       32.50578049      44.29952026      -0.18110732  F       0.00022705       0.00016793      -0.00000122
W       35.10648650      44.29948535       0.75357662  F       0.00016181       0.00010909      -0.00000608
W       33.80582179      46.55162229      -1.11097754  F       0.00013906       0.00009782      -0.00000413
W       36.40649904      46.55154843      -0.17595254  F       0.00005988       0.00004274      -0.00000741
W       31.20521920      46.55172695       0.71413618  F       0.00020970       0.00014631      -0.00000083
W       29.90477370      48.80402198      -1.14950092  F       0.00021492       0.00012398      -0.00000001
W       32.50529079      48.80387027      -0.21705448  F       0.00013413       0.00008415      -0.00000155
W       35.10586129      48.80373685       0.71673857  F       0.00005129       0.00003423      -0.00000417
W       33.80538114      51.05603866      -1.14950403  F       0.00005094       0.00002932      -0.00000000
W       36.40589683      51.05586744      -0.21560874  F       0.00000459       0.00000351      -0.00000250
W       31.20490100      51.05621172       0.67678239  F       0.00014001       0.00007394       0.00000154
W       29.90466277      53.30862873      -1.18802678  F       0.00015431       0.00007137       0.00000412
W       32.50507087      53.30843855      -0.25701374  F       0.00005532       0.00002714       0.00000416
W       35.10549088      53.30823688       0.67532978  F       0.00000536       0.00000210       0.00000257
W       33.80528323      55.56070890      -1.19234480  F       0.00001009       0.00000255       0.00000722
W       36.40562787      55.56047514      -0.26024183  F      -0.00001125      -0.00000869       0.00000597
W       31.20493758      55.56091822       0.63567809  F       0.00006694       0.00003031       0.00000741
W       29.90497969      57.81346332      -1.22996713  F       0.00008174       0.00003969       0.00000779
W       32.50527128      57.81326177      -0.30093406  F       0.00001989       0.00000679       0.00001048
W       35.10554795      57.81303100       0.62930609  F      -0.00000957      -0.00000917       0.00001107
W       33.80567689      60.06566103      -1.23933017  F      -0.00000565      -0.00000588       0.00001515
W       36.40588566      60.06541344      -0.30977107  F       0.00002410       0.00000079       0.00001371
W       31.20543447      60.06587281       0.59104545  F       0.00003354       0.00001497       0.00001322
W       29.90573620      62.31851487      -1.27494758  F       0.00004929       0.00002340       0.00001573
W       32.50598102      62.31833343      -0.34844658  F       0.00000104       0.00000171       0.00001810
W       35.10618022      62.31812166       0.57900659  F       0.00000679      -0.00000590       0.00001857
W       33.80664364      64.57085260      -1.28989060  F      -0.00000910      -0.00000799       0.00002197
W       36.40681069      64.57065237      -0.36361861  F       0.00008841       0.00001325       0.00001598
W       31.20641700      64.57101747       0.54342528  F       0.00001194       0.00000993       0.00001991
W       29.90694192      66.82368895      -1.32228967  F       0.00003011       0.00001467       0.00002019
W       32.50722103      66.82357553      -0.39879455  F      -0.00001323      -0.00000571       0.00002294
W       35.10744174      66.82343518       0.52526719  F       0.00004038      -0.00000308       0.00002204
W       33.80815484      69.07618843      -1.34300065  F      -0.00000173      -0.00001263       0.00002468
W       36.40839308      69.07608383      -0.42060361  F       0.00013394       0.00001091       0.00001525
W       31.20785925      69.07626984       0.49370738  F       0.00000143      -0.00000099       0.00002184
W       29.90851234      71.32892544      -1.37102739  F       0.00003049       0.00000395       0.00001964
W       32.50888950      71.32889583      -0.45083846  F      -0.00001521      -0.00001257       0.00002312
W       35.10922115      71.32885377       0.46944010  F       0.00006189      -0.00000664       0.00002300
W       33.81002379      73.58156258       1.36149600  F       0.00000085      -0.00001563       0.00002375
W       36.41041351      73.58157028       2.27973955  F       0.00014331      -0.00000048       0.00001665
W       31.20959771      73.58155161       3.20180661  F       0.00000484      -0.00000675       0.00001996
W       29.91024682      75.83415714       1.33873554  F       0.00004090      -0.00000218       0.00001733
W       32.51075696      75.83421013       2.25556302  F      -0.00001149      -0.00001448       0.00001964
W       35.11124304      75.83426844       3.17198527  F       0.00005160      -0.00001183       0.00002258
W       33.81196317      78.08690109       1.30776084  F      -0.00000665      -0.00001683       0.00001910
W       36.41251529      78.08701576       2.22196809  F       0.00011346      -0.00001233       0.00001885
W       31.21139564      78.08680243       3.15158512  F       0.00001914      -0.00001146       0.00001600
W       29.91193181      80.33934870       1.29073653  F       0.00006072      -0.00001452       0.00001374
W       32.51255925      80.33947775       2.20440909  F       0.00000352      -0.00001901       0.00001399
W       35.11318049      80.33962863       3.11724508  F       0.00001836      -0.00001564       0.00001791
W       33.81370249      82.59218849       1.25607567  F      -0.00000115      -0.00002279       0.00001205
W       36.41436675      82.59240166       2.16672759  F       0.00005248      -0.00001849       0.00001518
W       31.21303281      82.59200924       3.10304694  F       0.00004642      -0.00002735       0.00001161
W       29.91339395      84.84450313       1.24477887  F       0.00009306      -0.00004498       0.00001106
W       32.51409273      84.84470500       2.15571503  F       0.00003966      -0.00003774       0.00000945
W       35.11478913      84.84494453       3.06550487  F       0.00000494      -0.00002256       0.00000980