1979
Lattice="140.45173612856667 0.0 0.0 0.0 144.15972917685022 0.0 0.0 0.0 2.7587326401648085" Properties=species:S:1:pos:R:3:fix_mask:L:1:forces:R:3 energy=-18672.72731230636 pbc="T T T"
W       13.00096893      55.56156107      -0.33637396  T       0.00000000       0.00000000       0.00000000
W       13.00183201      60.06653753      -0.36890453  T       0.00000000       0.00000000       0.00000000
W       11.70189759      62.31903477       0.53237490  T       0.00000000       0.00000000       0.00000000
W       13.00285766      64.57153426      -0.40248428  T       0.00000000       0.00000000       0.00000000
W       11.70296797      66.82403512       0.49913029  T       0.00000000       0.00000000       0.00000000
W       10.40307425      69.07653486      -1.35733316  T       0.00000000       0.00000000       0.00000000
W       13.00399819      69.07653468      -0.43675594  T       0.00000000       0.00000000       0.00000000
W       11.70411684      71.32903253       0.46542397  T       0.00000000       0.00000000       0.00000000
W       10.40421256      73.58152791       1.36834256  T       0.00000000       0.00000000       0.00000000
W       13.00518788      73.58152786       2.28741924  T       0.00000000       0.00000000       0.00000000
W       11.70527738      75.83402095       3.19038218  T       0.00000000       0.00000000       0.00000000
W       13.00635282      78.08651212       2.25300329  T       0.00000000       0.00000000       0.00000000
W       11.70638087      80.33900348       3.15693816  T       0.00000000       0.00000000       0.00000000
W       13.00742323      82.59149558       2.21914574  T       0.00000000       0.00000000       0.00000000
W       11.70736765      84.84399130       3.12419990  T       0.00000000       0.00000000       0.00000000
W       13.00834457      87.09649345       2.18622336  T       0.00000000       0.00000000       0.00000000
W       20.80221302      42.04713750      -0.22004871  T       0.00000000       0.00000000       0.00000000
W       19.50183521      44.29945814       0.67979043  T       0.00000000       0.00000000       0.00000000
W       18.20152945      46.55181847      -1.17906346  T       0.00000000       0.00000000       0.00000000
W       20.80239897      46.55187601      -0.25044588  T       0.00000000       0.00000000       0.00000000
W       16.90129475      48.80421425      -0.27906704  T       0.00000000       0.00000000       0.00000000
W       19.50214200      48.80425213       0.64869348  T       0.00000000       0.00000000       0.00000000
W       18.20195999      51.05666351      -1.21072453  T       0.00000000       0.00000000       0.00000000
W       20.80279230      51.05669296      -0.28318295  T       0.00000000       0.00000000       0.00000000
W       15.60112745      51.05664037       0.62112243  T       0.00000000       0.00000000       0.00000000
W       14.30102151      53.30909119      -1.23715671  T       0.00000000       0.00000000       0.00000000
W       16.90184714      53.30910396      -0.31115250  T       0.00000000       0.00000000       0.00000000
W       19.50266887      53.30912052       0.61543444  T       0.00000000       0.00000000       0.00000000
W       18.20261501      55.56157516      -1.24434693  T       0.00000000       0.00000000       0.00000000
W       20.80342855      55.56158595      -0.31813830  T       0.00000000       0.00000000       0.00000000
W       15.60179519      55.56156710       0.58875289  T       0.00000000       0.00000000       0.00000000
W       14.30179394      57.81404678      -1.26967272  T       0.00000000       0.00000000       0.00000000
W       16.90261983      57.81404979      -0.34498146  T       0.00000000       0.00000000       0.00000000
W       19.50343752      57.81405407       0.58019727  T       0.00000000       0.00000000       0.00000000
W       18.20350068      60.06653883      -1.27969194  T       0.00000000       0.00000000       0.00000000
W       20.80432108      60.06654037      -0.35506209  T       0.00000000       0.00000000       0.00000000
W       15.60267074      60.06653795       0.55486855  T       0.00000000       0.00000000       0.00000000
W       14.30275443      62.31903419      -1.30347016  T       0.00000000       0.00000000       0.00000000
W       16.90360302      62.31903369      -0.38026976  T       0.00000000       0.00000000       0.00000000
W       19.50444243      62.31903333       0.54328942  T       0.00000000       0.00000000       0.00000000
W       18.20459335      64.57153274      -1.31640699  T       0.00000000       0.00000000       0.00000000
W       20.80501552      64.57146196      -0.39353008  F      -0.00003367       0.00000525       0.00000742
W       15.60372938      64.57153352       0.51978858  T       0.00000000       0.00000000       0.00000000
W       14.30386539      66.82403462      -1.33820559  T       0.00000000       0.00000000       0.00000000
W       16.90475717      66.82403407      -0.41663299  T       0.00000000       0.00000000       0.00000000
W       19.50564252      66.82403345       0.50514212  T       0.00000000       0.00000000       0.00000000
W       18.20583598      69.07653424      -1.35403518  T       0.00000000       0.00000000       0.00000000
W       20.80628679      69.07649288      -0.43309115  F      -0.00001350       0.00001309       0.00000267
W       15.60491892      69.07653447       0.48391621  T       0.00000000       0.00000000       0.00000000
W       14.30506587      71.32903252      -1.37346905  T       0.00000000       0.00000000       0.00000000
W       16.90601403      71.32903250      -0.45360388  T       0.00000000       0.00000000       0.00000000
W       19.50696116      71.32903248       0.46629080  T       0.00000000       0.00000000       0.00000000
W       18.20714368      73.58152775       1.36668983  T       0.00000000       0.00000000       0.00000000
W       20.80766177      73.58153132       2.28563883  F      -0.00000510       0.00001021       0.00000223
W       15.60616484      73.58152781       3.20644826  T       0.00000000       0.00000000       0.00000000
W       14.30627971      75.83402067       1.34992210  T       0.00000000       0.00000000       0.00000000
W       16.90728626      75.83402034       2.26806795  T       0.00000000       0.00000000       0.00000000
W       19.50829765      75.83401996       3.18606770  T       0.00000000       0.00000000       0.00000000
W       18.20841855      78.08651081       1.32887025  T       0.00000000       0.00000000       0.00000000
W       20.80902611      78.08655254       2.24585420  F      -0.00001330       0.00001125       0.00000486
W       15.60738235      78.08651150       3.17041026  T       0.00000000       0.00000000       0.00000000
W       14.30742838      80.33900275       1.31495880  T       0.00000000       0.00000000       0.00000000
W       16.90848358      80.33900200       2.23144272  T       0.00000000       0.00000000       0.00000000
W       19.50954745      80.33900126       3.14761717  T       0.00000000       0.00000000       0.00000000
W       18.20956929      82.59149512       1.29178955  T       0.00000000       0.00000000       0.00000000
W       20.81065651      82.59149530       2.20688872  T       0.00000000       0.00000000       0.00000000
W       15.60849185      82.59149525       3.13501253  T       0.00000000       0.00000000       0.00000000
W       14.30844460      84.84399203       1.28080093  T       0.00000000       0.00000000       0.00000000
W       16.90952984      84.84399329       2.19574210  T       0.00000000       0.00000000       0.00000000
W       19.51062403      84.84399531       3.11023486  T       0.00000000       0.00000000       0.00000000
W       18.21052839      87.09650184       1.25593511  T       0.00000000       0.00000000       0.00000000
W       20.81163185      87.09650858       2.16937925  T       0.00000000       0.00000000       0.00000000
W       15.60943269      87.09649696       3.10068259  T       0.00000000       0.00000000       0.00000000
W       14.30928243      89.34900687       1.24781720  T       0.00000000       0.00000000       0.00000000
W       16.91037530      89.34901557       2.16138181  T       0.00000000       0.00000000       0.00000000
W       19.51147380      89.34902707       3.07439116  T       0.00000000       0.00000000       0.00000000
W       18.21126100      91.60155391       1.22169737  T       0.00000000       0.00000000       0.00000000
W       20.81235359      91.60157606       2.13372316  T       0.00000000       0.00000000       0.00000000
W       15.61017085      91.60153672       3.06777029  T       0.00000000       0.00000000       0.00000000
W       16.91100058      93.85408873       2.12868141  T       0.00000000       0.00000000       0.00000000
W       19.51207996      93.85411854       3.04043690  T       0.00000000       0.00000000       0.00000000
W       18.21176414      96.10666881       1.18935405  T       0.00000000       0.00000000       0.00000000
W       20.81282468      96.10671610       2.10021758  T       0.00000000       0.00000000       0.00000000
W       15.61069917      96.10663090       3.03653364  T       0.00000000       0.00000000       0.00000000
W       16.91141287      98.35922583       2.09785705  T       0.00000000       0.00000000       0.00000000
W       19.51245638      98.35928264       3.00859716  T       0.00000000       0.00000000       0.00000000
W       18.21205893     100.61185465       1.15907136  T       0.00000000       0.00000000       0.00000000
W       20.81307480     100.61193516       2.06902563  T       0.00000000       0.00000000       0.00000000
W       19.51263649     102.86452125       2.97898172  T       0.00000000       0.00000000       0.00000000
W       20.81314709     105.11722830       2.04019621  T       0.00000000       0.00000000       0.00000000
W       27.30504646      30.78617020       0.79611835  T       0.00000000       0.00000000       0.00000000
W       26.00437671      33.03828379      -1.06183239  T       0.00000000       0.00000000       0.00000000
W       28.60546482      33.03854879      -0.12901058  T       0.00000000       0.00000000       0.00000000
W       24.70375016      35.29043406      -0.16137960  T       0.00000000       0.00000000       0.00000000
W       27.30480061      35.29065847       0.77089394  T       0.00000000       0.00000000       0.00000000
W       26.00418651      37.54280955      -1.08826738  T       0.00000000       0.00000000       0.00000000
W       28.60522584      37.54302788      -0.15569528  T       0.00000000       0.00000000       0.00000000
W       23.40317571      37.54262513       0.73880932  T       0.00000000       0.00000000       0.00000000
W       22.10266124      39.79485941      -1.11992727  T       0.00000000       0.00000000       0.00000000
W       24.70363220      39.79500601      -0.18895327  T       0.00000000       0.00000000       0.00000000
W       27.30462822      39.79518169       0.74292141  T       0.00000000       0.00000000       0.00000000
W       26.00409929      42.04738587      -1.11743940  T       0.00000000       0.00000000       0.00000000
W       28.60507786      42.04755115      -0.18536499  T       0.00000000       0.00000000       0.00000000
W       23.40314591      42.04724975       0.71018577  T       0.00000000       0.00000000       0.00000000
W       22.10273371      44.29954052      -1.14949643  T       0.00000000       0.00000000       0.00000000
W       24.70364744      44.29964157      -0.21921714  T       0.00000000       0.00000000       0.00000000
W       27.30458076      44.29976581       0.71199155  T       0.00000000       0.00000000       0.00000000
W       26.00417084      46.55203627      -1.14949859  T       0.00000000       0.00000000       0.00000000
W       28.60458507      46.55183907      -0.21823671  F      -0.00001440      -0.00001131      -0.00000114
W       23.40327820      46.55194740       0.67895489  T       0.00000000       0.00000000       0.00000000
W       22.10299367      48.80429969      -1.18155525  T       0.00000000       0.00000000       0.00000000
W       24.70385259      48.80435964      -0.25225594  T       0.00000000       0.00000000       0.00000000
W       27.30420727      48.80415979       0.67796979  F      -0.00001701      -0.00000686       0.00000114
W       26.00394321      51.05653997      -1.18449132  F      -0.00002777      -0.00000585       0.00000328
W       28.60430679      51.05633608      -0.25439852  F      -0.00005700      -0.00001888       0.00000460
W       23.40362624      51.05673061       0.64510101  T       0.00000000       0.00000000       0.00000000
W       22.10348762      53.30914206      -1.21604961  T       0.00000000       0.00000000       0.00000000
W       24.70379686      53.30896947      -0.28802775  F      -0.00003541      -0.00000087       0.00000439
W       27.30413070      53.30876853       0.64085179  F      -0.00006865      -0.00001782       0.00000743
W       26.00411395      55.56124538      -1.22234368  F      -0.00005454      -0.00000942       0.00000685
W       28.60436219      55.56103436      -0.29382176  F      -0.00008130      -0.00002950       0.00001201
W       23.40379705      55.56144490       0.60874854  F      -0.00001966       0.00001038       0.00000335
W       22.10424670      57.81406011      -1.25279810  T       0.00000000       0.00000000       0.00000000
W       24.70430972      57.81379379      -0.32638441  F      -0.00001663       0.00001088       0.00000366
W       27.30447662      57.81358857       0.60078456  F      -0.00005583      -0.00001338       0.00001254
W       26.00471198      60.06619738      -1.26278493  F      -0.00003867       0.00001562       0.00001335
W       28.60485640      60.06598120      -0.33625901  F      -0.00004547       0.00000346       0.00002410
W       23.40452388      60.06639977       0.57013370  F      -0.00000418       0.00001652       0.00000407
W       22.10472673      62.31894002      -1.29142799  F      -0.00002415       0.00000890       0.00000748
W       24.70500130      62.31880151      -0.36693432  F      -0.00005646       0.00002741       0.00001701
W       27.30518936      62.31862025       0.55812893  F      -0.00006973       0.00002195       0.00002701
W       26.00560673      64.57124367      -1.30536738  F      -0.00009687       0.00002298       0.00002728
W       28.60577586      64.57109620      -0.38121484  F      -0.00003505       0.00002441       0.00003666
W       23.40536099      64.57136486       0.52970414  F      -0.00007264       0.00001839       0.00001641
W       22.10584202      66.82392896      -1.33152899  F      -0.00004418       0.00001371       0.00000815
W       24.70610365      66.82384462      -0.40918056  F      -0.00008878       0.00001512       0.00002256
W       27.30631975      66.82374903       0.51348430  F      -0.00007693       0.00001752       0.00003629
W       26.00690943      69.07637321      -1.34942394  F      -0.00008481       0.00001592       0.00003047
W       28.60712595      69.07631099      -0.42792448  F      -0.00000114       0.00001931       0.00004206
W       23.40663862      69.07643028       0.48801740  F      -0.00005291       0.00001632       0.00001330
W       22.10720470      71.32899688      -1.37245562  F      -0.00001885       0.00001798       0.00000535
W       24.70751547      71.32896810      -0.45241356  F      -0.00006378       0.00002258       0.00002149
W       27.30779590      71.32894509       0.46766797  F      -0.00005160       0.00002142       0.00003814
W       26.00844354      73.58153761       1.36461505  F      -0.00006997       0.00002997       0.00002985
W       28.60875839      73.58155681       2.28333098  F       0.00001473       0.00002065       0.00004172
W       23.40808804      73.58153160       3.20453185  F      -0.00003948       0.00002705       0.00001254
W       22.10863295      75.83405974       1.34522185  F      -0.00002310       0.00002136       0.00000665
W       24.70904640      75.83408881       2.26292242  F      -0.00006167       0.00003314       0.00002043
W       27.30943625      75.83413756       3.18038267  F      -0.00004992       0.00002981       0.00003544
W       26.01004262      78.08667132       1.32020165  F      -0.00006717       0.00003250       0.00002537
W       28.61047434      78.08677032       2.23618295  F      -0.00000254       0.00002064       0.00003615
W       23.40957334      78.08659751       3.16255496  F      -0.00004031       0.00002549       0.00001249
W       22.11006892      80.33905874       1.30474463  F      -0.00000965       0.00001381       0.00000434
W       24.71058339      80.33916261       2.22019967  F      -0.00004197       0.00002677       0.00001406
W       27.31106844      80.33928713       3.13516381  F      -0.00005245       0.00003042       0.00002705
W       26.01156957      82.59177402       1.27695802  F      -0.00005331       0.00002906       0.00001588
W       28.61208888      82.59193567       2.19042453  F      -0.00003139       0.00002108       0.00002625
W       23.41105775      82.59164677       3.12156260  F      -0.00002009       0.00001494       0.00000467
W       22.11130599      84.84409785       1.26550991  F      -0.00001832       0.00000213       0.00000403
W       24.71194472      84.84423132       2.17892338  F      -0.00004426       0.00001394       0.00000980
W       27.31252758      84.84439722       3.09165159  F      -0.00006084       0.00001721       0.00001759
W       26.01287332      87.09681989       1.23563849  F      -0.00003912      -0.00000119       0.00001224
W       28.61346925      87.09704990       2.14693986  F      -0.00004124      -0.00000494       0.00001647
W       23.41224104      87.09664567       3.08223560  F      -0.00001830       0.00000393       0.00000569
W       22.11257743      89.34904228       1.22803535  T       0.00000000       0.00000000       0.00000000
W       24.71315508      89.34922603       2.13971779  F       0.00000186      -0.00000407       0.00000481
W       27.31376999      89.34945481       3.05055795  F      -0.00001136      -0.00001898       0.00001050
W       26.01400233      91.60184827       1.19680216  F       0.00002275      -0.00001481       0.00000311
W       28.61459840      91.60213980       2.10635568  F       0.00001642      -0.00002789       0.00000671
W       23.41344722      91.60160473       3.04502883  T       0.00000000       0.00000000       0.00000000
W       22.11315746      93.85415635       1.19275197  T       0.00000000       0.00000000       0.00000000
W       24.71423064      93.85420453       2.10299865  T       0.00000000       0.00000000       0.00000000
W       27.31476578      93.85451785       3.01234709  F       0.00003607      -0.00002179       0.00000149
W       26.01492103      96.10684974       1.16079027  T       0.00000000       0.00000000       0.00000000
W       28.61543742      96.10723910       2.06902114  F       0.00004081      -0.00002356      -0.00000000
W       23.41387812      96.10677531       3.01030652  T       0.00000000       0.00000000       0.00000000
W       22.11349055      98.35935271       1.15986020  T       0.00000000       0.00000000       0.00000000
W       24.71451192      98.35943941       2.06902358  T       0.00000000       0.00000000       0.00000000
W       27.31551625      98.35954700       2.97725461  T       0.00000000       0.00000000       0.00000000
W       26.01505915     100.61215349       1.12774076  T       0.00000000       0.00000000       0.00000000
W       28.61601882     100.61230067       2.03504652  T       0.00000000       0.00000000       0.00000000
W       23.41407621     100.61203338       2.97818912  T       0.00000000       0.00000000       0.00000000
W       22.11361972     102.86463011       1.12945419  T       0.00000000       0.00000000       0.00000000
W       24.71458362     102.86476148       2.03783196  T       0.00000000       0.00000000       0.00000000
W       27.31552387     102.86492024       2.94529569  T       0.00000000       0.00000000       0.00000000
W       26.01501781     105.11753835       1.09761308  T       0.00000000       0.00000000       0.00000000
W       28.61591353     105.11773970       2.00432511  T       0.00000000       0.00000000       0.00000000
W       23.41409424     105.11736965       2.94869759  T       0.00000000       0.00000000       0.00000000
W       22.11359453     107.36997697       1.10151997  T       0.00000000       0.00000000       0.00000000
W       24.71450389     107.37015409       2.00937071  T       0.00000000       0.00000000       0.00000000
W       27.31538638     107.37036304       2.91635325  T       0.00000000       0.00000000       0.00000000
W       26.01485616     109.62298179       1.07028248  T       0.00000000       0.00000000       0.00000000
W       28.61569883     109.62323238       1.97666964  T       0.00000000       0.00000000       0.00000000
W       27.31515992     111.87584922       2.89023640  T       0.00000000       0.00000000       0.00000000
W       28.61542475     114.12875124       1.95183120  T       0.00000000       0.00000000       0.00000000
W       36.40963441      24.03083112      -0.03938358  T       0.00000000       0.00000000       0.00000000
W       32.50765452      26.28240439      -0.07262912  T       0.00000000       0.00000000       0.00000000
W       35.10885629      26.28281904       0.86222945  T       0.00000000       0.00000000       0.00000000
W       33.80808242      28.53481273      -0.99551877  T       0.00000000       0.00000000       0.00000000
W       36.40929148      28.53524034      -0.06004556  T       0.00000000       0.00000000       0.00000000
W       31.20690193      28.53442928       0.82864904  T       0.00000000       0.00000000       0.00000000
W       29.90616874      30.78647476      -1.02931657  T       0.00000000       0.00000000       0.00000000
W       32.50732164      30.78682144      -0.09512619  T       0.00000000       0.00000000       0.00000000
W       35.10850625      30.78721388       0.84001121  T       0.00000000       0.00000000       0.00000000
W       33.80773736      33.03920577      -1.01930071  T       0.00000000       0.00000000       0.00000000
W       36.40892562      33.03960701      -0.08355047  T       0.00000000       0.00000000       0.00000000
W       31.20658429      33.03885452       0.80472259  T       0.00000000       0.00000000       0.00000000
W       29.90588173      35.29092078      -1.05464566  T       0.00000000       0.00000000       0.00000000
W       32.50699684      35.29122655      -0.12045857  T       0.00000000       0.00000000       0.00000000
W       35.10814888      35.29158149       0.81479949  T       0.00000000       0.00000000       0.00000000
W       33.80740667      37.54359033      -1.04619852  T       0.00000000       0.00000000       0.00000000
W       36.40812840      37.54349345      -0.11039917  F       0.00001241      -0.00001172      -0.00000407
W       31.20629786      37.54328598       0.77787588  T       0.00000000       0.00000000       0.00000000
W       29.90565391      39.79539222      -1.08294635  T       0.00000000       0.00000000       0.00000000
W       32.50635991      39.79534168      -0.14901366  F      -0.00000070      -0.00002214      -0.00000334
W       35.10720740      39.79544413       0.78611750  F       0.00000132      -0.00001973      -0.00000366
W       33.80634552      42.04738199      -1.07665704  F      -0.00003520      -0.00004240      -0.00000685
W       36.40711308      42.04735736      -0.14105471  F      -0.00003920      -0.00004148      -0.00001253
W       31.20565904      42.04741242       0.74776174  F      -0.00001834      -0.00003017      -0.00000439
W       29.90507126      44.29958710      -1.11450793  F      -0.00001887      -0.00002110      -0.00000328
W       32.50565194      44.29946813      -0.18112072  F      -0.00004960      -0.00005047      -0.00000743
W       35.10628691      44.29936858       0.75355044  F      -0.00006594      -0.00005553      -0.00001200
W       33.80559934      46.55150429      -1.11099440  F      -0.00006725      -0.00005633      -0.00000887
W       36.40617973      46.55134484      -0.17598396  F      -0.00002838      -0.00002393      -0.00001486
W       31.20507653      46.55167007       0.71412906  F      -0.00004476      -0.00003990      -0.00000459
W       29.90462472      48.80396443      -1.14950114  F      -0.00004539      -0.00002622       0.00000000
W       32.50505176      48.80375487      -0.21706041  F      -0.00006438      -0.00004473      -0.00000327
W       35.10551367      48.80354007       0.71672194  F      -0.00001908      -0.00001691      -0.00000798
W       33.80501621      51.05585653      -1.14950425  F      -0.00001651      -0.00000963       0.00000000
W       36.40540453      51.05559175      -0.21562044  F       0.00011648       0.00007137      -0.00000446
W       31.20465691      51.05610520       0.67678787  F      -0.00007094      -0.00003348       0.00000328
W       29.90442482      53.30853790      -1.18801037  F      -0.00008254      -0.00003021       0.00000888
W       32.50470203      53.30827880      -0.25699755  F      -0.00002425      -0.00000828       0.00000798
W       35.10498126      53.30799136       0.67534102  F       0.00012011       0.00006490       0.00000447
W       33.80477176      55.56050082      -1.19231182  F       0.00011244       0.00005204       0.00001313
W       36.40497242      55.56018196      -0.26021166  F       0.00024670       0.00011939       0.00000905
W       31.20457714      55.56078642       0.63570906  F      -0.00003512      -0.00001286       0.00001487
W       29.90463767      57.81335981      -1.22992459  F      -0.00003942      -0.00001235       0.00002030
W       32.50477330      57.81309434      -0.30088279  F       0.00009587       0.00003750       0.00002115
W       35.10489403      57.81279044       0.62936342  F       0.00024758       0.00009893       0.00001759
W       33.80504287      60.06547402      -1.23925155  F       0.00023729       0.00007898       0.00002524
W       36.40510510      60.06516444      -0.30968048  F       0.00026213       0.00008472       0.00002220
W       31.20496563      60.06574447       0.59111004  F       0.00006796       0.00002904       0.00002796
W       29.90531317      62.31842149      -1.27487549  F       0.00002220       0.00002748       0.00003341
W       32.50538558      62.31819697      -0.34835417  F       0.00020679       0.00006101       0.00003193
W       35.10542578      62.31793832       0.57911998  F       0.00028182       0.00007105       0.00002867
W       33.80593409      64.57072927      -1.28976496  F       0.00028695       0.00005606       0.00003374
W       36.40595583      64.57049518      -0.36346344  F       0.00020565       0.00002455       0.00003261
W       31.20587785      64.57092625       0.54352356  F       0.00014976       0.00004395       0.00003767
W       29.90647304      66.82363605      -1.32219279  F       0.00007361       0.00002828       0.00004170
W       32.50657381      66.82350389      -0.39866690  F       0.00026301       0.00003898       0.00003803
W       35.10663898      66.82334560       0.52543003  F       0.00025519       0.00001835       0.00003594
W       33.80741862      69.07615408      -1.34284238  F       0.00029050       0.00000948       0.00003741
W       36.40751522      69.07604340      -0.42040244  F       0.00015671      -0.00001987       0.00003753
W       31.20728965      69.07623962       0.49382846  F       0.00020130       0.00002337       0.00004165
W       29.90803212      71.32892490      -1.37091907  F       0.00010969       0.00001622       0.00004363
W       32.50823435      71.32890311      -0.45069417  F       0.00028313       0.00000039       0.00003891
W       35.10841739      71.32887127       0.46962692  F       0.00023216      -0.00002662       0.00003765
W       33.80930337      73.58162056       1.36165949  F       0.00028952      -0.00003340       0.00003588
W       36.40955848      73.58164865       2.27994828  F       0.00014496      -0.00004622       0.00003714
W       31.20903797      73.58158665       3.20193104  F       0.00021451      -0.00000219       0.00004077
W       29.90979330      75.83420675       1.33883766  F       0.00010227       0.00000630       0.00004086
W       32.51013340      75.83429221       2.25569856  F       0.00027859      -0.00003395       0.00003572
W       35.11047675      75.83438607       3.17216010  F       0.00024012      -0.00006073       0.00003371
W       33.81129365      78.08703847       1.30789973  F       0.00029284      -0.00006800       0.00003036
W       36.41171856      78.08719719       2.22214243  F       0.00017509      -0.00006947       0.00003149
W       31.21088314      78.08689392       3.15169216  F       0.00018473      -0.00002098       0.00003613
W       29.91153800      80.33943713       1.29081729  F       0.00005827       0.00000256       0.00003352
W       32.51200174      80.33961812       2.20451400  F       0.00024309      -0.00005579       0.00002981
W       35.11248195      80.33982552       3.11737697  F       0.00027273      -0.00009297       0.00002560
W       33.81311519      82.59238180       1.25617014  F       0.00027366      -0.00009112       0.00002304
W       36.41365389      82.59265855       2.16684070  F       0.00024084      -0.00010400       0.00002104
W       31.21259979      82.59213911       3.10312255  F       0.00011553      -0.00002545       0.00002832
W       29.91308669      84.84461389       1.24483059  F      -0.00000125      -0.00000138       0.00002288
W       32.51363235      84.84487991       2.15577917  F       0.00016286      -0.00005970       0.00002153
W       35.11418660      84.84519135       3.06558024  F       0.00028439      -0.00012043       0.00001644