1979
Lattice="140.45173612715155 0.0 0.0 0.0 144.15972917539773 0.0 0.0 0.0 2.7587326401370125" Properties=species:S:1:pos:R:3:fix_mask:L:1:forces:R:3 energy=-18682.276517044527 pbc="T T T"
W       13.00097008      55.56156107      -0.33637397  T       0.00000000       0.00000000       0.00000000
W       13.00183291      60.06653754      -0.36890455  T       0.00000000       0.00000000       0.00000000
W       11.70189833      62.31903478       0.53237489  T       0.00000000       0.00000000       0.00000000
W       13.00285824      64.57153427      -0.40248429  T       0.00000000       0.00000000       0.00000000
W       11.70296838      66.82403512       0.49913028  T       0.00000000       0.00000000       0.00000000
W       10.40307448      69.07653486      -1.35733317  T       0.00000000       0.00000000       0.00000000
W       13.00399843      69.07653468      -0.43675595  T       0.00000000       0.00000000       0.00000000
W       11.70411690      71.32903253       0.46542397  T       0.00000000       0.00000000       0.00000000
W       10.40421245      73.58152791       1.36834256  T       0.00000000       0.00000000       0.00000000
W       13.00518776      73.58152786       2.28741925  T       0.00000000       0.00000000       0.00000000
W       11.70527708      75.83402095       3.19038219  T       0.00000000       0.00000000       0.00000000
W       13.00635235      78.08651212       2.25300330  T       0.00000000       0.00000000       0.00000000
W       11.70638024      80.33900348       3.15693818  T       0.00000000       0.00000000       0.00000000
W       13.00742243      82.59149558       2.21914575  T       0.00000000       0.00000000       0.00000000
W       11.70736673      84.84399130       3.12419992  T       0.00000000       0.00000000       0.00000000
W       13.00834349      87.09649345       2.18622338  T       0.00000000       0.00000000       0.00000000
W       20.80221468      42.04713733      -0.22004870  T       0.00000000       0.00000000       0.00000000
W       19.50183683      44.29945802       0.67979044  T       0.00000000       0.00000000       0.00000000
W       18.20153102      46.55181839      -1.17906346  T       0.00000000       0.00000000       0.00000000
W       20.80240057      46.55187591      -0.25044588  T       0.00000000       0.00000000       0.00000000
W       16.90129624      48.80421421      -0.27906704  T       0.00000000       0.00000000       0.00000000
W       19.50214353      48.80425208       0.64869347  T       0.00000000       0.00000000       0.00000000
W       18.20196142      51.05666348      -1.21072454  T       0.00000000       0.00000000       0.00000000
W       20.80279377      51.05669292      -0.28318295  T       0.00000000       0.00000000       0.00000000
W       15.60112885      51.05664034       0.62112242  T       0.00000000       0.00000000       0.00000000
W       14.30102280      53.30909118      -1.23715673  T       0.00000000       0.00000000       0.00000000
W       16.90184847      53.30910395      -0.31115251  T       0.00000000       0.00000000       0.00000000
W       19.50267024      53.30912050       0.61543443  T       0.00000000       0.00000000       0.00000000
W       18.20261625      55.56157515      -1.24434695  T       0.00000000       0.00000000       0.00000000
W       20.80342984      55.56158594      -0.31813831  T       0.00000000       0.00000000       0.00000000
W       15.60179639      55.56156709       0.58875288  T       0.00000000       0.00000000       0.00000000
W       14.30179499      57.81404678      -1.26967273  T       0.00000000       0.00000000       0.00000000
W       16.90262092      57.81404979      -0.34498148  T       0.00000000       0.00000000       0.00000000
W       19.50343865      57.81405407       0.58019725  T       0.00000000       0.00000000       0.00000000
W       18.20350165      60.06653883      -1.27969195  T       0.00000000       0.00000000       0.00000000
W       20.80432209      60.06654037      -0.35506211  T       0.00000000       0.00000000       0.00000000
W       15.60267167      60.06653795       0.55486853  T       0.00000000       0.00000000       0.00000000
W       14.30275519      62.31903420      -1.30347017  T       0.00000000       0.00000000       0.00000000
W       16.90360382      62.31903370      -0.38026978  T       0.00000000       0.00000000       0.00000000
W       19.50444326      62.31903334       0.54328940  T       0.00000000       0.00000000       0.00000000
W       18.20459399      64.57153274      -1.31640700  T       0.00000000       0.00000000       0.00000000
W       20.80501857      64.57146248      -0.39353155  F      -0.00003201       0.00000532       0.00000721
W       15.60372999      64.57153352       0.51978857  T       0.00000000       0.00000000       0.00000000
W       14.30386582      66.82403463      -1.33820560  T       0.00000000       0.00000000       0.00000000
W       16.90475762      66.82403407      -0.41663300  T       0.00000000       0.00000000       0.00000000
W       19.50564298      66.82403345       0.50514211  T       0.00000000       0.00000000       0.00000000
W       18.20583624      69.07653424      -1.35403519  T       0.00000000       0.00000000       0.00000000
W       20.80628975      69.07649325      -0.43309296  F      -0.00001201       0.00001306       0.00000247
W       15.60491917      69.07653447       0.48391620  T       0.00000000       0.00000000       0.00000000
W       14.30506593      71.32903251      -1.37346906  T       0.00000000       0.00000000       0.00000000
W       16.90601409      71.32903250      -0.45360388  T       0.00000000       0.00000000       0.00000000
W       19.50696123      71.32903248       0.46629080  T       0.00000000       0.00000000       0.00000000
W       18.20714355      73.58152774       1.36668984  T       0.00000000       0.00000000       0.00000000
W       20.80766443      73.58153142       2.28563697  F      -0.00000365       0.00001004       0.00000202
W       15.60616472      73.58152781       3.20644827  T       0.00000000       0.00000000       0.00000000
W       14.30627941      75.83402067       1.34992211  T       0.00000000       0.00000000       0.00000000
W       16.90728594      75.83402034       2.26806795  T       0.00000000       0.00000000       0.00000000
W       19.50829732      75.83401996       3.18606771  T       0.00000000       0.00000000       0.00000000
W       18.20841803      78.08651082       1.32887026  T       0.00000000       0.00000000       0.00000000
W       20.80902826      78.08655237       2.24585259  F      -0.00001185       0.00001098       0.00000465
W       15.60738185      78.08651150       3.17041027  T       0.00000000       0.00000000       0.00000000
W       14.30742772      80.33900275       1.31495881  T       0.00000000       0.00000000       0.00000000
W       16.90848290      80.33900200       2.23144273  T       0.00000000       0.00000000       0.00000000
W       19.50954674      80.33900126       3.14761719  T       0.00000000       0.00000000       0.00000000
W       18.20956842      82.59149512       1.29178956  T       0.00000000       0.00000000       0.00000000
W       20.81065560      82.59149530       2.20688873  T       0.00000000       0.00000000       0.00000000
W       15.60849102      82.59149525       3.13501255  T       0.00000000       0.00000000       0.00000000
W       14.30844363      84.84399203       1.28080095  T       0.00000000       0.00000000       0.00000000
W       16.90952884      84.84399329       2.19574212  T       0.00000000       0.00000000       0.00000000
W       19.51062299      84.84399532       3.11023488  T       0.00000000       0.00000000       0.00000000
W       18.21052723      87.09650184       1.25593513  T       0.00000000       0.00000000       0.00000000
W       20.81163065      87.09650858       2.16937927  T       0.00000000       0.00000000       0.00000000
W       15.60943158      87.09649696       3.10068261  T       0.00000000       0.00000000       0.00000000
W       14.30928121      89.34900686       1.24781722  T       0.00000000       0.00000000       0.00000000
W       16.91037404      89.34901556       2.16138183  T       0.00000000       0.00000000       0.00000000
W       19.51147250      89.34902706       3.07439118  T       0.00000000       0.00000000       0.00000000
W       18.21125962      91.60155388       1.22169739  T       0.00000000       0.00000000       0.00000000
W       20.81235217      91.60157603       2.13372318  T       0.00000000       0.00000000       0.00000000
W       15.61016951      91.60153670       3.06777031  T       0.00000000       0.00000000       0.00000000
W       16.91099913      93.85408870       2.12868143  T       0.00000000       0.00000000       0.00000000
W       19.51207848      93.85411850       3.04043692  T       0.00000000       0.00000000       0.00000000
W       18.21176261      96.10666876       1.18935406  T       0.00000000       0.00000000       0.00000000
W       20.81282312      96.10671603       2.10021759  T       0.00000000       0.00000000       0.00000000
W       15.61069767      96.10663085       3.03653365  T       0.00000000       0.00000000       0.00000000
W       16.91141130      98.35922575       2.09785707  T       0.00000000       0.00000000       0.00000000
W       19.51245479      98.35928255       3.00859717  T       0.00000000       0.00000000       0.00000000
W       18.21205731     100.61185454       1.15907137  T       0.00000000       0.00000000       0.00000000
W       20.81307316     100.61193501       2.06902563  T       0.00000000       0.00000000       0.00000000
W       19.51263484     102.86452108       2.97898173  T       0.00000000       0.00000000       0.00000000
W       20.81314543     105.11722806       2.04019621  T       0.00000000       0.00000000       0.00000000
W       27.30504798      30.78616957       0.79611838  T       0.00000000       0.00000000       0.00000000
W       26.00437828      33.03828328      -1.06183236  T       0.00000000       0.00000000       0.00000000
W       28.60546636      33.03854820      -0.12901055  T       0.00000000       0.00000000       0.00000000
W       24.70375178      35.29043365      -0.16137957  T       0.00000000       0.00000000       0.00000000
W       27.30480220      35.29065799       0.77089396  T       0.00000000       0.00000000       0.00000000
W       26.00418814      37.54280918      -1.08826735  T       0.00000000       0.00000000       0.00000000
W       28.60522745      37.54302744      -0.15569526  T       0.00000000       0.00000000       0.00000000
W       23.40317736      37.54262481       0.73880934  T       0.00000000       0.00000000       0.00000000
W       22.10266290      39.79485918      -1.11992725  T       0.00000000       0.00000000       0.00000000
W       24.70363386      39.79500572      -0.18895325  T       0.00000000       0.00000000       0.00000000
W       27.30462987      39.79518135       0.74292143  T       0.00000000       0.00000000       0.00000000
W       26.00410095      42.04738562      -1.11743938  T       0.00000000       0.00000000       0.00000000
W       28.60507951      42.04755085      -0.18536497  T       0.00000000       0.00000000       0.00000000
W       23.40314757      42.04724954       0.71018579  T       0.00000000       0.00000000       0.00000000
W       22.10273535      44.29954038      -1.14949642  T       0.00000000       0.00000000       0.00000000
W       24.70364909      44.29964139      -0.21921713  T       0.00000000       0.00000000       0.00000000
W       27.30458242      44.29976560       0.71199156  T       0.00000000       0.00000000       0.00000000
W       26.00417248      46.55203613      -1.14949858  T       0.00000000       0.00000000       0.00000000
W       28.60458919      46.55184040      -0.21823650  F      -0.00001306      -0.00001043      -0.00000111
W       23.40327982      46.55194728       0.67895489  T       0.00000000       0.00000000       0.00000000
W       22.10299523      48.80429962      -1.18155525  T       0.00000000       0.00000000       0.00000000
W       24.70385418      48.80435955      -0.25225594  T       0.00000000       0.00000000       0.00000000
W       27.30421142      48.80416105       0.67796959  F      -0.00001557      -0.00000614       0.00000111
W       26.00394730      51.05654114      -1.18449189  F      -0.00002619      -0.00000526       0.00000322
W       28.60431337      51.05633858      -0.25439933  F      -0.00005423      -0.00001761       0.00000449
W       23.40362775      51.05673056       0.64510100  T       0.00000000       0.00000000       0.00000000
W       22.10348903      53.30914204      -1.21604962  T       0.00000000       0.00000000       0.00000000
W       24.70380081      53.30897053      -0.28802858  F      -0.00003368      -0.00000035       0.00000429
W       27.30413714      53.30877079       0.64085026  F      -0.00006578      -0.00001670       0.00000725
W       26.00412001      55.56124738      -1.22234565  F      -0.00005183      -0.00000839       0.00000666
W       28.60437129      55.56103767      -0.29382460  F      -0.00007735      -0.00002792       0.00001166
W       23.40380062      55.56144577       0.60874769  F      -0.00001815       0.00001076       0.00000323
W       22.10424788      57.81406011      -1.25279811  T       0.00000000       0.00000000       0.00000000
W       24.70431476      57.81379535      -0.32638637  F      -0.00001477       0.00001153       0.00000351
W       27.30448507      57.81359135       0.60078101  F      -0.00005238      -0.00001213       0.00001214
W       26.00471958      60.06619951      -1.26278884  F      -0.00003572       0.00001632       0.00001290
W       28.60486780      60.06598461      -0.33626453  F      -0.00004105       0.00000469       0.00002337
W       23.40452814      60.06640070       0.57013170  F      -0.00000267       0.00001664       0.00000388
W       22.10473050      62.31894071      -1.29142989  F      -0.00002241       0.00000892       0.00000725
W       24.70500811      62.31880303      -0.36693831  F      -0.00005361       0.00002768       0.00001653
W       27.30519985      62.31862286       0.55812295  F      -0.00006567       0.00002274       0.00002623
W       26.00561611      64.57124560      -1.30537333  F      -0.00009316       0.00002349       0.00002654
W       28.60578940      64.57109907      -0.38122306  F      -0.00003043       0.00002511       0.00003554
W       23.40536683      64.57136602       0.52970047  F      -0.00006989       0.00001859       0.00001598
W       22.10584632      66.82392975      -1.33153175  F      -0.00004216       0.00001382       0.00000789
W       24.70611156      66.82384598      -0.40918603  F      -0.00008559       0.00001545       0.00002190
W       27.30633176      66.82375102       0.51347631  F      -0.00007269       0.00001800       0.00003524
W       26.00691963      69.07637446      -1.34943117  F      -0.00008114       0.00001619       0.00002956
W       28.60714074      69.07631271      -0.42793451  F       0.00000324       0.00001952       0.00004071
W       23.40664482      69.07643112       0.48801288  F      -0.00005025       0.00001642       0.00001278
W       22.10720890      71.32899727      -1.37245871  F      -0.00001694       0.00001787       0.00000503
W       24.70752361      71.32896874      -0.45241967  F      -0.00006074       0.00002262       0.00002074
W       27.30780845      71.32894593       0.46765904  F      -0.00004763       0.00002149       0.00003696
W       26.00845372      73.58153780       1.36460761  F      -0.00006658       0.00002988       0.00002889
W       28.60877330      73.58155693       2.28332062  F       0.00001874       0.00002048       0.00004033
W       23.40809407      73.58153181       3.20452720  F      -0.00003695       0.00002684       0.00001199
W       22.10863674      75.83405966       1.34521893  F      -0.00002123       0.00002102       0.00000634
W       24.70905410      75.83408860       2.26291662  F      -0.00005885       0.00003287       0.00001970
W       27.30944835      75.83413704       3.18037415  F      -0.00004634       0.00002955       0.00003430
W       26.01005191      78.08667048       1.32019511  F      -0.00006412       0.00003213       0.00002452
W       28.61048820      78.08676882       2.23617385  F       0.00000110       0.00002018       0.00003493
W       23.40957864      78.08659717       3.16255094  F      -0.00003792       0.00002510       0.00001201
W       22.11007166      80.33905848       1.30474250  F      -0.00000811       0.00001353       0.00000410
W       24.71058980      80.33916173       2.22019510  F      -0.00003949       0.00002631       0.00001349
W       27.31107907      80.33928543       3.13515696  F      -0.00004933       0.00002990       0.00002614
W       26.01157703      82.59177239       1.27695325  F      -0.00005075       0.00002842       0.00001527
W       28.61210062      82.59193293       2.19041786  F      -0.00002825       0.00002038       0.00002535
W       23.41106124      82.59164595       3.12156007  F      -0.00001837       0.00001436       0.00000440
W       22.11130760      84.84409728       1.26550871  F      -0.00001700       0.00000172       0.00000389
W       24.71194938      84.84423001       2.17892046  F      -0.00004212       0.00001323       0.00000945
W       27.31253595      84.84439481       3.09164707  F      -0.00005820       0.00001645       0.00001700
W       26.01287849      87.09681812       1.23563577  F      -0.00003696      -0.00000192       0.00001191
W       28.61347810      87.09704667       2.14693601  F      -0.00003862      -0.00000585       0.00001597
W       23.41224302      87.09664490       3.08223425  F      -0.00001688       0.00000347       0.00000553
W       22.11257609      89.34904227       1.22803537  T       0.00000000       0.00000000       0.00000000
W       24.71315711      89.34922501       2.13971659  F       0.00000324      -0.00000456       0.00000467
W       27.31377530      89.34945249       3.05055578  F      -0.00000926      -0.00001981       0.00001024
W       26.01400429      91.60184693       1.19680129  F       0.00002408      -0.00001537       0.00000300
W       28.61460362      91.60213686       2.10635429  F       0.00001845      -0.00002883       0.00000654
W       23.41344576      91.60160469       3.04502885  T       0.00000000       0.00000000       0.00000000
W       22.11315594      93.85415630       1.19275198  T       0.00000000       0.00000000       0.00000000
W       24.71422909      93.85420446       2.10299866  T       0.00000000       0.00000000       0.00000000
W       27.31476761      93.85451617       3.01234663  F       0.00003734      -0.00002242       0.00000144
W       26.01491941      96.10684963       1.16079028  T       0.00000000       0.00000000       0.00000000
W       28.61543906      96.10723706       2.06902115  F       0.00004203      -0.00002427      -0.00000000
W       23.41387652      96.10677522       3.01030654  T       0.00000000       0.00000000       0.00000000
W       22.11348893      98.35935259       1.15986021  T       0.00000000       0.00000000       0.00000000
W       24.71451028      98.35943926       2.06902359  T       0.00000000       0.00000000       0.00000000
W       27.31551460      98.35954683       2.97725462  T       0.00000000       0.00000000       0.00000000
W       26.01505749     100.61215328       1.12774077  T       0.00000000       0.00000000       0.00000000
W       28.61601716     100.61230041       2.03504652  T       0.00000000       0.00000000       0.00000000
W       23.41407456     100.61203320       2.97818912  T       0.00000000       0.00000000       0.00000000
W       22.11361806     102.86462990       1.12945419  T       0.00000000       0.00000000       0.00000000
W       24.71458196     102.86476124       2.03783196  T       0.00000000       0.00000000       0.00000000
W       27.31552222     102.86491994       2.94529569  T       0.00000000       0.00000000       0.00000000
W       26.01501616     105.11753802       1.09761307  T       0.00000000       0.00000000       0.00000000
W       28.61591190     105.11773931       2.00432511  T       0.00000000       0.00000000       0.00000000
W       23.41409258     105.11736937       2.94869759  T       0.00000000       0.00000000       0.00000000
W       22.11359288     107.36997666       1.10151997  T       0.00000000       0.00000000       0.00000000
W       24.71450225     107.37015372       2.00937071  T       0.00000000       0.00000000       0.00000000
W       27.31538477     107.37036262       2.91635324  T       0.00000000       0.00000000       0.00000000
W       26.01485456     109.62298132       1.07028248  T       0.00000000       0.00000000       0.00000000
W       28.61569727     109.62323183       1.97666963  T       0.00000000       0.00000000       0.00000000
W       27.31515837     111.87584864       2.89023639  T       0.00000000       0.00000000       0.00000000
W       28.61542327     114.12875054       1.95183119  T       0.00000000       0.00000000       0.00000000
W       36.40963556      24.03082984      -0.03938355  T       0.00000000       0.00000000       0.00000000
W       32.50765583      26.28240339      -0.07262909  T       0.00000000       0.00000000       0.00000000
W       35.10885753      26.28281791       0.86222948  T       0.00000000       0.00000000       0.00000000
W       33.80808374      28.53481175      -0.99551874  T       0.00000000       0.00000000       0.00000000
W       36.40929273      28.53523924      -0.06004553  T       0.00000000       0.00000000       0.00000000
W       31.20690333      28.53442842       0.82864907  T       0.00000000       0.00000000       0.00000000
W       29.90617021      30.78647404      -1.02931655  T       0.00000000       0.00000000       0.00000000
W       32.50732306      30.78682062      -0.09512616  T       0.00000000       0.00000000       0.00000000
W       35.10850760      30.78721294       0.84001124  T       0.00000000       0.00000000       0.00000000
W       33.80773879      33.03920497      -1.01930068  T       0.00000000       0.00000000       0.00000000
W       36.40892698      33.03960610      -0.08355044  T       0.00000000       0.00000000       0.00000000
W       31.20658578      33.03885384       0.80472262  T       0.00000000       0.00000000       0.00000000
W       29.90588329      35.29092023      -1.05464563  T       0.00000000       0.00000000       0.00000000
W       32.50699835      35.29122590      -0.12045854  T       0.00000000       0.00000000       0.00000000
W       35.10815034      35.29158074       0.81479952  T       0.00000000       0.00000000       0.00000000
W       33.80740820      37.54358972      -1.04619849  T       0.00000000       0.00000000       0.00000000
W       36.40813228      37.54349504      -0.11039716  F       0.00001326      -0.00001047      -0.00000388
W       31.20629943      37.54328546       0.77787591  T       0.00000000       0.00000000       0.00000000
W       29.90565554      39.79539182      -1.08294633  T       0.00000000       0.00000000       0.00000000
W       32.50636339      39.79534270      -0.14901279  F       0.00000038      -0.00002102      -0.00000323
W       35.10721222      39.79544609       0.78611948  F       0.00000281      -0.00001844      -0.00000351
W       33.80635123      42.04738460      -1.07665505  F      -0.00003296      -0.00004058      -0.00000665
W       36.40712066      42.04736165      -0.14105115  F      -0.00003639      -0.00003912      -0.00001213
W       31.20566287      42.04741368       0.74776259  F      -0.00001702      -0.00002894      -0.00000429
W       29.90507526      44.29958843      -1.11450735  F      -0.00001756      -0.00002003      -0.00000322
W       32.50565807      44.29947094      -0.18111918  F      -0.00004719      -0.00004855      -0.00000724
W       35.10629527      44.29937317       0.75355329  F      -0.00006260      -0.00005291      -0.00001166
W       33.80560822      46.55150889      -1.11099254  F      -0.00006365      -0.00005373      -0.00000863
W       36.40619124      46.55135161      -0.17598059  F      -0.00002422      -0.00002071      -0.00001440
W       31.20508293      46.55167288       0.71412988  F      -0.00004227      -0.00003814      -0.00000449
W       29.90463127      48.80396713      -1.14950113  F      -0.00004277      -0.00002471       0.00000000
W       32.50506098      48.80375930      -0.21705977  F      -0.00006056      -0.00004234      -0.00000319
W       35.10552580      48.80354662       0.71672371  F      -0.00001468      -0.00001393      -0.00000773
W       33.80502874      51.05586267      -1.14950424  F      -0.00001191      -0.00000697       0.00000000
W       36.40542053      51.05560039      -0.21561923  F       0.00011990       0.00007355      -0.00000430
W       31.20466630      51.05610934       0.67678724  F      -0.00006696      -0.00003137       0.00000320
W       29.90443419      53.30854166      -1.18801221  F      -0.00007848      -0.00002839       0.00000864
W       32.50471471      53.30828439      -0.25699931  F      -0.00001946      -0.00000596       0.00000773
W       35.10499769      53.30799926       0.67533983  F       0.00012371       0.00006677       0.00000430
W       33.80478830      55.56050783      -1.19231530  F       0.00011634       0.00005367       0.00001264
W       36.40499330      55.56019149      -0.26021476  F       0.00024792       0.00011982       0.00000868
W       31.20458970      55.56079136       0.63570570  F      -0.00003025      -0.00001087       0.00001441
W       29.90464980      57.81336403      -1.22992924  F      -0.00003469      -0.00001070       0.00001967
W       32.50478959      57.81310035      -0.30088824  F       0.00010013       0.00003892       0.00002038
W       35.10491495      57.81279867       0.62935750  F       0.00024918       0.00009929       0.00001686
W       33.80506340      60.06548084      -1.23925974  F       0.00023948       0.00007935       0.00002420
W       36.40513074      60.06517345      -0.30968966  F       0.00026243       0.00008435       0.00002132
W       31.20498132      60.06574941       0.59110309  F       0.00007251       0.00003025       0.00002698
W       29.90532794      62.31842536      -1.27488336  F       0.00002691       0.00002843       0.00003231
W       32.50540527      62.31820238      -0.34836391  F       0.00020976       0.00006140       0.00003065
W       35.10545085      62.31794551       0.57910838  F       0.00028230       0.00007063       0.00002748
W       33.80595804      64.57073469      -1.28977798  F       0.00028802       0.00005574       0.00003229
W       36.40598558      64.57050209      -0.36347907  F       0.00020650       0.00002391       0.00003141
W       31.20589629      64.57093029       0.54351301  F       0.00015354       0.00004434       0.00003624
W       29.90648982      66.82363884      -1.32220340  F       0.00007792       0.00002861       0.00004024
W       32.50659609      66.82350766      -0.39868037  F       0.00026509       0.00003880       0.00003641
W       35.10666723      66.82335043       0.52541339  F       0.00025564       0.00001763       0.00003450
W       33.80744474      69.07615703      -1.34285883  F       0.00029130       0.00000891       0.00003578
W       36.40754767      69.07604689      -0.42042272  F       0.00015798      -0.00002095       0.00003620
W       31.20730979      69.07624191       0.49381541  F       0.00020450       0.00002327       0.00003998
W       29.90804975      71.32892596      -1.37093101  F       0.00011363       0.00001611       0.00004204
W       32.50825780      71.32890443      -0.45070949  F       0.00028503      -0.00000001       0.00003719
W       35.10844716      71.32887276       0.46960775  F       0.00023275      -0.00002757       0.00003616
W       33.80932991      73.58162036       1.36164236  F       0.00029055      -0.00003403       0.00003426
W       36.40959158      73.58164799       2.27992709  F       0.00014600      -0.00004775       0.00003585
W       31.20905836      73.58158665       3.20191750  F       0.00021763      -0.00000255       0.00003908
W       29.90981044      75.83420580       1.33882627  F       0.00010603       0.00000589       0.00003934
W       32.51015631      75.83429072       2.25568400  F       0.00028086      -0.00003443       0.00003408
W       35.11050599      75.83438383       3.17214198  F       0.00024084      -0.00006171       0.00003231
W       33.81131870      78.08703508       1.30788498  F       0.00029449      -0.00006859       0.00002890
W       36.41175000      78.08719238       2.22212451  F       0.00017577      -0.00007097       0.00003035
W       31.21090225      78.08689158       3.15168036  F       0.00018808      -0.00002153       0.00003462
W       29.91155334      80.33943439       1.29080817  F       0.00006183       0.00000191       0.00003230
W       32.51202245      80.33961408       2.20450255  F       0.00024600      -0.00005641       0.00002843
W       35.11250862      80.33981986       3.11736310  F       0.00027400      -0.00009375       0.00002440
W       33.81313702      82.59237582       1.25615991  F       0.00027620      -0.00009181       0.00002189
W       36.41368157      82.59265032       2.16682886  F       0.00024187      -0.00010503       0.00002012
W       31.21261629      82.59213493       3.10311407  F       0.00011895      -0.00002625       0.00002719
W       29.91309923      84.84461000       1.24482465  F       0.00000188      -0.00000228       0.00002207
W       32.51364956      84.84487414       2.15577202  F       0.00016613      -0.00006065       0.00002059
W       35.11420902      84.84518326       3.06557214  F       0.00028668      -0.00012125       0.00001557