1979
Lattice="140.45173612649734 0.0 0.0 0.0 144.1597291747263 0.0 0.0 0.0 2.7587326401241636" Properties=species:S:1:pos:R:3:fix_mask:L:1:forces:R:3 energy=-18711.843013439793 pbc="T T T"
W       13.00105599      55.56156143      -0.33637512  T       0.00000000       0.00000000       0.00000000
W       13.00189944      60.06653809      -0.36890570  T       0.00000000       0.00000000       0.00000000
W       11.70195262      62.31903523       0.53237384  T       0.00000000       0.00000000       0.00000000
W       13.00290172      64.57153459      -0.40248518  T       0.00000000       0.00000000       0.00000000
W       11.70299860      66.82403529       0.49912962  T       0.00000000       0.00000000       0.00000000
W       10.40309154      69.07653492      -1.35733355  T       0.00000000       0.00000000       0.00000000
W       13.00401625      69.07653474      -0.43675635  T       0.00000000       0.00000000       0.00000000
W       11.70412127      71.32903253       0.46542387  T       0.00000000       0.00000000       0.00000000
W       10.40420389      73.58152793       1.36834276  T       0.00000000       0.00000000       0.00000000
W       13.00517882      73.58152788       2.28741946  T       0.00000000       0.00000000       0.00000000
W       11.70525534      75.83402105       3.19038270  T       0.00000000       0.00000000       0.00000000
W       13.00631719      78.08651235       2.25300411  T       0.00000000       0.00000000       0.00000000
W       11.70633368      80.33900384       3.15693921  T       0.00000000       0.00000000       0.00000000
W       13.00736321      82.59149609       2.21914701  T       0.00000000       0.00000000       0.00000000
W       11.70729799      84.84399186       3.12420130  T       0.00000000       0.00000000       0.00000000
W       13.00826357      87.09649395       2.18622485  T       0.00000000       0.00000000       0.00000000
W       20.80233691      42.04712599      -0.22004797  T       0.00000000       0.00000000       0.00000000
W       19.50195686      44.29945050       0.67979075  T       0.00000000       0.00000000       0.00000000
W       18.20164722      46.55181379      -1.17906357  T       0.00000000       0.00000000       0.00000000
W       20.80251873      46.55187008      -0.25044577  T       0.00000000       0.00000000       0.00000000
W       16.90140701      48.80421174      -0.27906752  T       0.00000000       0.00000000       0.00000000
W       19.50225677      48.80424880       0.64869317  T       0.00000000       0.00000000       0.00000000
W       18.20206803      51.05666197      -1.21072520  T       0.00000000       0.00000000       0.00000000
W       20.80290319      51.05669080      -0.28318347  T       0.00000000       0.00000000       0.00000000
W       15.60123265      51.05663932       0.62112163  T       0.00000000       0.00000000       0.00000000
W       14.30111825      53.30909105      -1.23715774  T       0.00000000       0.00000000       0.00000000
W       16.90194689      53.30910357      -0.31115344  T       0.00000000       0.00000000       0.00000000
W       19.50277171      53.30911980       0.61543359  T       0.00000000       0.00000000       0.00000000
W       18.20270821      55.56157526      -1.24434800  T       0.00000000       0.00000000       0.00000000
W       20.80352503      55.56158583      -0.31813930  T       0.00000000       0.00000000       0.00000000
W       15.60188525      55.56156735       0.58875177  T       0.00000000       0.00000000       0.00000000
W       14.30187313      57.81404731      -1.26967391  T       0.00000000       0.00000000       0.00000000
W       16.90270203      57.81405027      -0.34498264  T       0.00000000       0.00000000       0.00000000
W       19.50352291      57.81405448       0.58019611  T       0.00000000       0.00000000       0.00000000
W       18.20357374      60.06653939      -1.27969312  T       0.00000000       0.00000000       0.00000000
W       20.80439727      60.06654092      -0.35506327  T       0.00000000       0.00000000       0.00000000
W       15.60274089      60.06653851       0.55486737  T       0.00000000       0.00000000       0.00000000
W       14.30281176      62.31903468      -1.30347124  T       0.00000000       0.00000000       0.00000000
W       16.90366285      62.31903420      -0.38027087  T       0.00000000       0.00000000       0.00000000
W       19.50450496      62.31903386       0.54328829  T       0.00000000       0.00000000       0.00000000
W       18.20464153      64.57153312      -1.31640795  T       0.00000000       0.00000000       0.00000000
W       20.80528905      64.57148868      -0.39355186  F      -0.00020120      -0.00002504       0.00001066
W       15.60377541      64.57153387       0.51978764  T       0.00000000       0.00000000       0.00000000
W       14.30389741      66.82403481      -1.33820628  T       0.00000000       0.00000000       0.00000000
W       16.90479070      66.82403427      -0.41663371  T       0.00000000       0.00000000       0.00000000
W       19.50567770      66.82403367       0.50514137  T       0.00000000       0.00000000       0.00000000
W       18.20585583      69.07653431      -1.35403563  T       0.00000000       0.00000000       0.00000000
W       20.80653760      69.07650204      -0.43311291  F      -0.00018650      -0.00000970       0.00000685
W       15.60493784      69.07653454       0.48391578  T       0.00000000       0.00000000       0.00000000
W       14.30507052      71.32903252      -1.37346916  T       0.00000000       0.00000000       0.00000000
W       16.90601890      71.32903250      -0.45360399  T       0.00000000       0.00000000       0.00000000
W       19.50696628      71.32903249       0.46629068  T       0.00000000       0.00000000       0.00000000
W       18.20713371      73.58152776       1.36669007  T       0.00000000       0.00000000       0.00000000
W       20.80787693      73.58151831       2.28561722  F      -0.00017939       0.00000902       0.00000697
W       15.60615535      73.58152783       3.20644849  T       0.00000000       0.00000000       0.00000000
W       14.30625667      75.83402077       1.34992264  T       0.00000000       0.00000000       0.00000000
W       16.90726212      75.83402045       2.26806851  T       0.00000000       0.00000000       0.00000000
W       19.50827229      75.83402008       3.18606830  T       0.00000000       0.00000000       0.00000000
W       18.20837951      78.08651108       1.32887114  T       0.00000000       0.00000000       0.00000000
W       20.80919671      78.08652344       2.24583342  F      -0.00018188       0.00002427       0.00001003
W       15.60734509      78.08651175       3.17041111  T       0.00000000       0.00000000       0.00000000
W       14.30737915      80.33900314       1.31495989  T       0.00000000       0.00000000       0.00000000
W       16.90843214      80.33900242       2.23144385  T       0.00000000       0.00000000       0.00000000
W       19.50949361      80.33900170       3.14761835  T       0.00000000       0.00000000       0.00000000
W       18.20950403      82.59149567       1.29179090  T       0.00000000       0.00000000       0.00000000
W       20.81058831      82.59149586       2.20689011  T       0.00000000       0.00000000       0.00000000
W       15.60842931      82.59149578       3.13501384  T       0.00000000       0.00000000       0.00000000
W       14.30837223      84.84399259       1.28080236  T       0.00000000       0.00000000       0.00000000
W       16.90945457      84.84399385       2.19574356  T       0.00000000       0.00000000       0.00000000
W       19.51054567      84.84399585       3.11023635  T       0.00000000       0.00000000       0.00000000
W       18.21044131      87.09650220       1.25593664  T       0.00000000       0.00000000       0.00000000
W       20.81154147      87.09650882       2.16938079  T       0.00000000       0.00000000       0.00000000
W       15.60934874      87.09649740       3.10068410  T       0.00000000       0.00000000       0.00000000
W       14.30919101      89.34900706       1.24781871  T       0.00000000       0.00000000       0.00000000
W       16.91028082      89.34901559       2.16138332  T       0.00000000       0.00000000       0.00000000
W       19.51137613      89.34902686       3.07439265  T       0.00000000       0.00000000       0.00000000
W       18.21115729      91.60155307       1.22169879  T       0.00000000       0.00000000       0.00000000
W       20.81224684      91.60157476       2.13372453  T       0.00000000       0.00000000       0.00000000
W       15.61007013      91.60153624       3.06777174  T       0.00000000       0.00000000       0.00000000
W       16.91089192      93.85408708       2.12868272  T       0.00000000       0.00000000       0.00000000
W       19.51196856      93.85411625       3.04043814  T       0.00000000       0.00000000       0.00000000
W       18.21164906      96.10666536       1.18935514  T       0.00000000       0.00000000       0.00000000
W       20.81270728      96.10671162       2.10021858  T       0.00000000       0.00000000       0.00000000
W       15.61058649      96.10662826       3.03653481  T       0.00000000       0.00000000       0.00000000
W       16.91129490      98.35922105       2.09785799  T       0.00000000       0.00000000       0.00000000
W       19.51233650      98.35927662       3.00859799  T       0.00000000       0.00000000       0.00000000
W       18.21193723     100.61184696       1.15907202  T       0.00000000       0.00000000       0.00000000
W       20.81295181     100.61192568       2.06902616  T       0.00000000       0.00000000       0.00000000
W       19.51251261     102.86450978       2.97898210  T       0.00000000       0.00000000       0.00000000
W       20.81302256     105.11721212       2.04019630  T       0.00000000       0.00000000       0.00000000
W       27.30516001      30.78612476       0.79612051  T       0.00000000       0.00000000       0.00000000
W       26.00449467      33.03824698      -1.06183035  T       0.00000000       0.00000000       0.00000000
W       28.60557978      33.03850600      -0.12900841  T       0.00000000       0.00000000       0.00000000
W       24.70387155      35.29040503      -0.16137777  T       0.00000000       0.00000000       0.00000000
W       27.30491985      35.29062439       0.77089594  T       0.00000000       0.00000000       0.00000000
W       26.00430890      37.54278322      -1.08826563  T       0.00000000       0.00000000       0.00000000
W       28.60534634      37.54299664      -0.15569332  T       0.00000000       0.00000000       0.00000000
W       23.40329935      37.54260294       0.73881084  T       0.00000000       0.00000000       0.00000000
W       22.10278576      39.79484307      -1.11992611  T       0.00000000       0.00000000       0.00000000
W       24.70375639      39.79498638      -0.18895186  T       0.00000000       0.00000000       0.00000000
W       27.30475150      39.79515813       0.74292306  T       0.00000000       0.00000000       0.00000000
W       26.00422378      42.04736884      -1.11743814  T       0.00000000       0.00000000       0.00000000
W       28.60520184      42.04753042      -0.18536346  T       0.00000000       0.00000000       0.00000000
W       23.40327034      42.04723575       0.71018677  T       0.00000000       0.00000000       0.00000000
W       22.10285669      44.29953106      -1.14949588  T       0.00000000       0.00000000       0.00000000
W       24.70377139      44.29962988      -0.21921633  T       0.00000000       0.00000000       0.00000000
W       27.30470523      44.29975136       0.71199264  T       0.00000000       0.00000000       0.00000000
W       26.00429381      46.55202681      -1.14949799  T       0.00000000       0.00000000       0.00000000
W       28.60496012      46.55198505      -0.21823304  F      -0.00018229      -0.00011560      -0.00000119
W       23.40339972      46.55193990       0.67895522  T       0.00000000       0.00000000       0.00000000
W       22.10311083      48.80429533      -1.18155537  T       0.00000000       0.00000000       0.00000000
W       24.70397198      48.80435398      -0.25225584  T       0.00000000       0.00000000       0.00000000
W       27.30459092      48.80429085       0.67796735  F      -0.00019127      -0.00010008       0.00000119
W       26.00432742      51.05665351      -1.18449942  F      -0.00020347      -0.00008758       0.00000343
W       28.60492351      51.05657445      -0.25440874  F      -0.00028145      -0.00013567       0.00000319
W       23.40373993      51.05672765       0.64510066  T       0.00000000       0.00000000       0.00000000
W       22.10359362      53.30914089      -1.21605034  T       0.00000000       0.00000000       0.00000000
W       24.70416949      53.30906478      -0.28803978  F      -0.00021264      -0.00007710       0.00000501
W       27.30473897      53.30897354       0.64083252  F      -0.00029677      -0.00012445       0.00000548
W       26.00468149      55.56141900      -1.22236675  F      -0.00029148      -0.00011776       0.00000436
W       28.60517752      55.56130732      -0.29385808  F      -0.00028054      -0.00011537       0.00000743
W       23.40412486      55.56151861       0.60873563  F      -0.00018876      -0.00006026       0.00000566
W       22.10433548      57.81406041      -1.25279921  T       0.00000000       0.00000000       0.00000000
W       24.70476906      57.81391670      -0.32640574  F      -0.00022188      -0.00008510       0.00000136
W       27.30522786      57.81380205       0.60073846  F      -0.00027122      -0.00010007       0.00001084
W       26.00538285      60.06633903      -1.26283445  F      -0.00026834      -0.00006420       0.00001209
W       28.60580369      60.06621013      -0.33633112  F      -0.00022935      -0.00006280       0.00001426
W       23.40490691      60.06645571       0.57010970  F      -0.00019634      -0.00003210       0.00000531
W       22.10506968      62.31897362      -1.29145406  F      -0.00021900      -0.00002353       0.00001016
W       24.70560143      62.31888661      -0.36698405  F      -0.00029576      -0.00003835       0.00001372
W       27.30605467      62.31877467       0.55805225  F      -0.00025590      -0.00004446       0.00001649
W       26.00637695      64.57134120      -1.30544219  F      -0.00029155      -0.00003686       0.00001720
W       28.60680692      64.57124165      -0.38132143  F      -0.00021680      -0.00003064       0.00001968
W       23.40587547      64.57142298       0.52965929  F      -0.00031118      -0.00003944       0.00001296
W       22.10621489      66.82396232      -1.33156026  F      -0.00024730      -0.00003067       0.00000650
W       24.70675230      66.82390091      -0.40924903  F      -0.00030427      -0.00003324       0.00001847
W       27.30723001      66.82383023       0.51338245  F      -0.00024099      -0.00002375       0.00002077
W       26.00768245      69.07640514      -1.34951385  F      -0.00026638      -0.00001564       0.00001962
W       28.60815929      69.07635239      -0.42805300  F      -0.00020672      -0.00001165       0.00002326
W       23.40714730      69.07645277       0.48796425  F      -0.00029135      -0.00002017       0.00001324
W       22.10754755      71.32899404      -1.37248901  F      -0.00022868      -0.00000135       0.00000577
W       24.70813574      71.32896314      -0.45248850  F      -0.00027852      -0.00000112       0.00001928
W       27.30867563      71.32893515       0.46755574  F      -0.00022247       0.00000009       0.00002243
W       26.00916397      73.58149281       1.36452384  F      -0.00025205       0.00001484       0.00001983
W       28.60972738      73.58149083       2.28320032  F      -0.00020060       0.00001033       0.00002396
W       23.40855346      73.58150238       3.20447809  F      -0.00027767       0.00001669       0.00001347
W       22.10892915      75.83402218       1.34519021  F      -0.00022736       0.00002768       0.00000673
W       24.70960208      75.83402567       2.26285231  F      -0.00027473       0.00003039       0.00001848
W       27.31023444      75.83404294       3.18027738  F      -0.00021926       0.00002407       0.00002158
W       26.01066901      78.08656664       1.32012289  F      -0.00025367       0.00003800       0.00001797
W       28.61133073      78.08661638       2.23607021  F      -0.00019827       0.00003076       0.00002134
W       23.40996558      78.08653480       3.16250948  F      -0.00027419       0.00003718       0.00001218
W       22.11027070      80.33902027       1.30472143  F      -0.00018924       0.00002454       0.00000648
W       24.71102678      80.33906636       2.22014591  F      -0.00025975       0.00004754       0.00001438
W       27.31174320      80.33913121       3.13508056  F      -0.00022263       0.00004579       0.00001781
W       26.01206102      82.59162849       1.27690092  F      -0.00024944       0.00006694       0.00001486
W       28.61279832      82.59172257       2.19034308  F      -0.00020176       0.00005292       0.00001680
W       23.41130483      82.59156233       3.12153659  F      -0.00020816       0.00005908       0.00000459
W       22.11142472      84.84404538       1.26549495  F      -0.00017185       0.00004269       0.00000760
W       24.71226598      84.84411262       2.17889110  F      -0.00025935       0.00007462       0.00000889
W       27.31305617      84.84420897       3.09159801  F      -0.00024147       0.00006955       0.00001246
W       26.01321572      87.09667883       1.23560638  F      -0.00024914       0.00006875       0.00001021
W       28.61400881      87.09682015       2.14689382  F      -0.00021615       0.00006598       0.00001071
W       23.41238097      87.09657999       3.08221903  F      -0.00018536       0.00004690       0.00000750
W       22.11247646      89.34904177       1.22803683  T       0.00000000       0.00000000       0.00000000
W       24.71329230      89.34914551       2.13970313  F      -0.00016804       0.00004795       0.00000637
W       27.31411103      89.34928475       3.05053207  F      -0.00021982       0.00006795       0.00000816
W       26.01413053      91.60174958       1.19679163  F      -0.00014734       0.00005154       0.00000444
W       28.61492843      91.60193636       2.10633922  F      -0.00019160       0.00007411       0.00000514
W       23.41333740      91.60160283       3.04503015  T       0.00000000       0.00000000       0.00000000
W       22.11304336      93.85415326       1.19275313  T       0.00000000       0.00000000       0.00000000
W       24.71411395      93.85420039       2.10299972  T       0.00000000       0.00000000       0.00000000
W       27.31488260      93.85439864       3.01234186  F      -0.00013052       0.00005858       0.00000226
W       26.01479959      96.10684234       1.16079104  T       0.00000000       0.00000000       0.00000000
W       28.61554188      96.10709829       2.06902178  F      -0.00011989       0.00006925      -0.00000000
W       23.41375858      96.10676954       3.01030741  T       0.00000000       0.00000000       0.00000000
W       22.11336896      98.35934515       1.15986091  T       0.00000000       0.00000000       0.00000000
W       24.71438893      98.35942993       2.06902416  T       0.00000000       0.00000000       0.00000000
W       27.31539225      98.35953515       2.97725505  T       0.00000000       0.00000000       0.00000000
W       26.01493469     100.61213917       1.12774103  T       0.00000000       0.00000000       0.00000000
W       28.61589437     100.61228306       2.03504665  T       0.00000000       0.00000000       0.00000000
W       23.41395227     100.61202173       2.97818952  T       0.00000000       0.00000000       0.00000000
W       22.11349531     102.86461621       1.12945443  T       0.00000000       0.00000000       0.00000000
W       24.71445912     102.86474466       2.03783207  T       0.00000000       0.00000000       0.00000000
W       27.31539982     102.86489986       2.94529568  T       0.00000000       0.00000000       0.00000000
W       26.01489441     105.11751523       1.09761294  T       0.00000000       0.00000000       0.00000000
W       28.61579160     105.11771206       2.00432488  T       0.00000000       0.00000000       0.00000000
W       23.41397000     105.11735031       2.94869757  T       0.00000000       0.00000000       0.00000000
W       22.11347080     107.36995514       1.10151982  T       0.00000000       0.00000000       0.00000000
W       24.71438131     107.37012828       2.00937046  T       0.00000000       0.00000000       0.00000000
W       27.31526558     107.37033254       2.91635292  T       0.00000000       0.00000000       0.00000000
W       26.01473655     109.62294851       1.07028207  T       0.00000000       0.00000000       0.00000000
W       28.61558190     109.62319344       1.97666920  T       0.00000000       0.00000000       0.00000000
W       27.31504438     111.87580755       2.89023591  T       0.00000000       0.00000000       0.00000000
W       28.61531416     114.12870039       1.95183070  T       0.00000000       0.00000000       0.00000000
W       36.40971960      24.03073691      -0.03938196  T       0.00000000       0.00000000       0.00000000
W       32.50775215      26.28233116      -0.07262709  T       0.00000000       0.00000000       0.00000000
W       35.10894833      26.28273639       0.86223134  T       0.00000000       0.00000000       0.00000000
W       33.80818122      28.53474149      -0.99551667  T       0.00000000       0.00000000       0.00000000
W       36.40938452      28.53515939      -0.06004359  T       0.00000000       0.00000000       0.00000000
W       31.20700585      28.53436674       0.82865121  T       0.00000000       0.00000000       0.00000000
W       29.90627851      30.78642243      -1.02931436  T       0.00000000       0.00000000       0.00000000
W       32.50742692      30.78676126      -0.09512397  T       0.00000000       0.00000000       0.00000000
W       35.10860633      30.78714480       0.84001338  T       0.00000000       0.00000000       0.00000000
W       33.80784410      33.03914811      -1.01929843  T       0.00000000       0.00000000       0.00000000
W       36.40902706      33.03954026      -0.08354823  T       0.00000000       0.00000000       0.00000000
W       31.20669551      33.03880482       0.80472484  T       0.00000000       0.00000000       0.00000000
W       29.90599812      35.29088079      -1.05464349  T       0.00000000       0.00000000       0.00000000
W       32.50710960      35.29117964      -0.12045630  T       0.00000000       0.00000000       0.00000000
W       35.10825717      35.29152655       0.81480182  T       0.00000000       0.00000000       0.00000000
W       33.80752103      37.54354641      -1.04619623  T       0.00000000       0.00000000       0.00000000
W       36.40843815      37.54367655      -0.11037396  F      -0.00012585      -0.00015388      -0.00000531
W       31.20641570      37.54324893       0.77787803  T       0.00000000       0.00000000       0.00000000
W       29.90577560      39.79536394      -1.08294446  T       0.00000000       0.00000000       0.00000000
W       32.50665741      39.79546805      -0.14899954  F      -0.00014651      -0.00013330      -0.00000566
W       35.10761334      39.79565981       0.78614007  F      -0.00018452      -0.00014952      -0.00000135
W       33.80684948      42.04766598      -1.07663271  F      -0.00024761      -0.00019348      -0.00000436
W       36.40774346      42.04778053      -0.14100731  F      -0.00022209      -0.00018475      -0.00001084
W       31.20599765      42.04756678       0.74777499  F      -0.00017305      -0.00014557      -0.00000501
W       29.90543144      44.29974236      -1.11449861  F      -0.00017755      -0.00013240      -0.00000343
W       32.50620343      44.29977167      -0.18110019  F      -0.00025608      -0.00019475      -0.00000548
W       35.10700082      44.29981747       0.75358808  F      -0.00024003      -0.00018522      -0.00000743
W       33.80637163      46.55194880      -1.11096928  F      -0.00024079      -0.00017201      -0.00000527
W       36.40711217      46.55194545      -0.17593799  F      -0.00018416      -0.00013886      -0.00000793
W       31.20566110      46.55196421       0.71414056  F      -0.00025816      -0.00017590      -0.00000318
W       29.90523190      48.80423446      -1.14950050  F      -0.00026662      -0.00015394       0.00000000
W       32.50586593      48.80417227      -0.21705123  F      -0.00024411      -0.00015279      -0.00000187
W       35.10651321      48.80411220       0.71674659  F      -0.00018743      -0.00012570      -0.00000420
W       33.80606113      51.05637924      -1.14950355  F      -0.00019349      -0.00011178      -0.00000000
W       36.40663984      51.05627521      -0.21560303  F      -0.00018436      -0.00011491      -0.00000270
W       31.20549520      51.05648076       0.67678002  F      -0.00025437      -0.00013509       0.00000187
W       29.90526559      53.30886361      -1.18803416  F      -0.00026941      -0.00012262       0.00000527
W       32.50576700      53.30873747      -0.25702082  F      -0.00020257      -0.00009959       0.00000419
W       35.10626057      53.30859853       0.67532506  F      -0.00019163      -0.00010235       0.00000269
W       33.80606287      55.56101761      -1.19235935  F      -0.00019554      -0.00008872       0.00000782
W       36.40647662      55.56084182      -0.26025493  F      -0.00025175      -0.00012425       0.00000708
W       31.20563315      55.56117272       0.63566447  F      -0.00021240      -0.00009020       0.00000793
W       29.90565253      57.81366905      -1.22998621  F      -0.00021900      -0.00008000       0.00001176
W       32.50604193      57.81351343      -0.30095696  F      -0.00019547      -0.00007430       0.00001242
W       35.10639856      57.81333242       0.62928089  F      -0.00024981      -0.00010361       0.00001351
W       33.80651032      60.06589462      -1.23936467  F      -0.00024085      -0.00008129       0.00001864
W       36.40678951      60.06569157      -0.30980994  F      -0.00031958      -0.00011860       0.00002037
W       31.20617944      60.06606445       0.59101667  F      -0.00019450      -0.00005823       0.00001586
W       29.90644584      62.31864776      -1.27497962  F      -0.00019996      -0.00004223       0.00001825
W       32.50678204      62.31850077      -0.34848695  F      -0.00022750      -0.00005886       0.00002211
W       35.10705669      62.31832449       0.57895833  F      -0.00030643      -0.00009088       0.00002585
W       33.80747781      64.57098545      -1.28994367  F      -0.00028650      -0.00006417       0.00002929
W       36.40770059      64.57081208      -0.36368158  F      -0.00036017      -0.00008901       0.00003212
W       31.20717481      64.57112504       0.54338247  F      -0.00021405      -0.00003892       0.00002384
W       29.90764717      66.82374675      -1.32233187  F      -0.00020516      -0.00002346       0.00002418
W       32.50800226      66.82364742      -0.39884829  F      -0.00026073      -0.00003995       0.00003057
W       35.10828087      66.82352445       0.52520179  F      -0.00033544      -0.00006044       0.00003475
W       33.80893444      69.07621761      -1.34306393  F      -0.00030660      -0.00003476       0.00003566
W       36.40920361      69.07612288      -0.42067916  F      -0.00037546      -0.00004668       0.00003770
W       31.20858004      69.07629150       0.49365641  F      -0.00023174      -0.00001955       0.00002964
W       29.90916707      71.32890722      -1.37107312  F      -0.00020722      -0.00000330       0.00002720
W       32.50960486      71.32887622      -0.45089646  F      -0.00027170      -0.00001228       0.00003449
W       35.10997275      71.32883748       0.46937022  F      -0.00033814      -0.00002172       0.00003709
W       33.81071336      73.58150135       1.36143424  F      -0.00030248       0.00000055       0.00003609
W       36.41111053      73.58150877       2.27966714  F      -0.00036709      -0.00000133       0.00003557
W       31.21024693      73.58149442       3.20175601  F      -0.00023249       0.00000566       0.00003092
W       29.91082881      75.83407297       1.33869353  F      -0.00020174       0.00001891       0.00002611
W       32.51138419      75.83411470       2.25551052  F      -0.00026098       0.00001855       0.00003289
W       35.11188853      75.83416829       3.17192384  F      -0.00032172       0.00001770       0.00003370
W       33.81255523      78.08677050       1.30771021  F      -0.00028066       0.00003500       0.00003161
W       36.41310271      78.08688032       2.22191112  F      -0.00033798       0.00004006       0.00002866
W       31.21196073      78.08668359       3.15154258  F      -0.00021642       0.00003015       0.00002714
W       29.91243273      80.33921644       1.29070393  F      -0.00019019       0.00003877       0.00002110
W       32.51309715      80.33932649       2.20436899  F      -0.00023226       0.00004499       0.00002640
W       35.11372888      80.33946667       3.11719999  F      -0.00029118       0.00005380       0.00002721
W       33.81420733      82.59200794       1.25604112  F      -0.00024268       0.00006214       0.00002318
W       36.41486850      82.59221100       2.16669112  F      -0.00029612       0.00007564       0.00002087
W       31.21351443      82.59184780       3.10301701  F      -0.00019106       0.00004889       0.00001973
W       29.91381462      84.84434354       1.24475827  F      -0.00018735       0.00005560       0.00001409
W       32.51454922      84.84451732       2.15569035  F      -0.00019297       0.00006029       0.00001662
W       35.11525908      84.84473670       3.06547851  F      -0.00024605       0.00008060       0.00001778