1979
Lattice="140.45173612774457 0.0 0.0 0.0 144.1597291760064 0.0 0.0 0.0 2.7587326401486605" Properties=species:S:1:pos:R:3:fix_mask:L:1:forces:R:3 energy=-18701.404538250048 pbc="T T T"
W       13.00105811      55.56156141      -0.33637514  T       0.00000000       0.00000000       0.00000000
W       13.00190108      60.06653809      -0.36890573  T       0.00000000       0.00000000       0.00000000
W       11.70195396      62.31903523       0.53237382  T       0.00000000       0.00000000       0.00000000
W       13.00290280      64.57153459      -0.40248520  T       0.00000000       0.00000000       0.00000000
W       11.70299935      66.82403529       0.49912960  T       0.00000000       0.00000000       0.00000000
W       10.40309196      69.07653492      -1.35733356  T       0.00000000       0.00000000       0.00000000
W       13.00401669      69.07653474      -0.43675636  T       0.00000000       0.00000000       0.00000000
W       11.70412138      71.32903253       0.46542386  T       0.00000000       0.00000000       0.00000000
W       10.40420368      73.58152793       1.36834276  T       0.00000000       0.00000000       0.00000000
W       13.00517860      73.58152788       2.28741946  T       0.00000000       0.00000000       0.00000000
W       11.70525481      75.83402105       3.19038271  T       0.00000000       0.00000000       0.00000000
W       13.00631633      78.08651235       2.25300413  T       0.00000000       0.00000000       0.00000000
W       11.70633253      80.33900384       3.15693923  T       0.00000000       0.00000000       0.00000000
W       13.00736175      82.59149608       2.21914704  T       0.00000000       0.00000000       0.00000000
W       11.70729630      84.84399186       3.12420133  T       0.00000000       0.00000000       0.00000000
W       13.00826160      87.09649394       2.18622489  T       0.00000000       0.00000000       0.00000000
W       20.80233996      42.04712561      -0.22004795  T       0.00000000       0.00000000       0.00000000
W       19.50195984      44.29945023       0.67979076  T       0.00000000       0.00000000       0.00000000
W       18.20165010      46.55181360      -1.17906357  T       0.00000000       0.00000000       0.00000000
W       20.80252166      46.55186985      -0.25044577  T       0.00000000       0.00000000       0.00000000
W       16.90140975      48.80421161      -0.27906753  T       0.00000000       0.00000000       0.00000000
W       19.50225957      48.80424865       0.64869316  T       0.00000000       0.00000000       0.00000000
W       18.20207067      51.05666188      -1.21072522  T       0.00000000       0.00000000       0.00000000
W       20.80290590      51.05669069      -0.28318348  T       0.00000000       0.00000000       0.00000000
W       15.60123522      51.05663924       0.62112162  T       0.00000000       0.00000000       0.00000000
W       14.30112061      53.30909101      -1.23715776  T       0.00000000       0.00000000       0.00000000
W       16.90194933      53.30910352      -0.31115346  T       0.00000000       0.00000000       0.00000000
W       19.50277422      53.30911973       0.61543358  T       0.00000000       0.00000000       0.00000000
W       18.20271048      55.56157523      -1.24434802  T       0.00000000       0.00000000       0.00000000
W       20.80352738      55.56158579      -0.31813932  T       0.00000000       0.00000000       0.00000000
W       15.60188744      55.56156732       0.58875175  T       0.00000000       0.00000000       0.00000000
W       14.30187506      57.81404729      -1.26967394  T       0.00000000       0.00000000       0.00000000
W       16.90270403      57.81405025      -0.34498267  T       0.00000000       0.00000000       0.00000000
W       19.50352499      57.81405446       0.58019609  T       0.00000000       0.00000000       0.00000000
W       18.20357552      60.06653939      -1.27969315  T       0.00000000       0.00000000       0.00000000
W       20.80439912      60.06654091      -0.35506330  T       0.00000000       0.00000000       0.00000000
W       15.60274259      60.06653851       0.55486734  T       0.00000000       0.00000000       0.00000000
W       14.30281316      62.31903468      -1.30347127  T       0.00000000       0.00000000       0.00000000
W       16.90366430      62.31903420      -0.38027089  T       0.00000000       0.00000000       0.00000000
W       19.50450648      62.31903386       0.54328827  T       0.00000000       0.00000000       0.00000000
W       18.20464270      64.57153312      -1.31640797  T       0.00000000       0.00000000       0.00000000
W       20.80529805      64.57148878      -0.39354658  F      -0.00023106      -0.00003065       0.00001250
W       15.60377653      64.57153388       0.51978762  T       0.00000000       0.00000000       0.00000000
W       14.30389818      66.82403481      -1.33820630  T       0.00000000       0.00000000       0.00000000
W       16.90479152      66.82403428      -0.41663373  T       0.00000000       0.00000000       0.00000000
W       19.50567856      66.82403367       0.50514135  T       0.00000000       0.00000000       0.00000000
W       18.20585631      69.07653431      -1.35403564  T       0.00000000       0.00000000       0.00000000
W       20.80654381      69.07650094      -0.43310606  F      -0.00021509      -0.00001386       0.00000839
W       15.60493830      69.07653454       0.48391577  T       0.00000000       0.00000000       0.00000000
W       14.30507063      71.32903252      -1.37346916  T       0.00000000       0.00000000       0.00000000
W       16.90601901      71.32903250      -0.45360399  T       0.00000000       0.00000000       0.00000000
W       19.50696641      71.32903249       0.46629068  T       0.00000000       0.00000000       0.00000000
W       18.20713347      73.58152776       1.36669007  T       0.00000000       0.00000000       0.00000000
W       20.80788040      73.58151655       2.28562433  F      -0.00020795       0.00000801       0.00000865
W       15.60615511      73.58152783       3.20644849  T       0.00000000       0.00000000       0.00000000
W       14.30625611      75.83402077       1.34992265  T       0.00000000       0.00000000       0.00000000
W       16.90726153      75.83402045       2.26806852  T       0.00000000       0.00000000       0.00000000
W       19.50827168      75.83402008       3.18606831  T       0.00000000       0.00000000       0.00000000
W       18.20837856      78.08651108       1.32887116  T       0.00000000       0.00000000       0.00000000
W       20.80919822      78.08652164       2.24583954  F      -0.00021179       0.00002612       0.00001226
W       15.60734418      78.08651175       3.17041113  T       0.00000000       0.00000000       0.00000000
W       14.30737795      80.33900314       1.31495991  T       0.00000000       0.00000000       0.00000000
W       16.90843089      80.33900242       2.23144388  T       0.00000000       0.00000000       0.00000000
W       19.50949230      80.33900170       3.14761838  T       0.00000000       0.00000000       0.00000000
W       18.20950245      82.59149566       1.29179093  T       0.00000000       0.00000000       0.00000000
W       20.81058665      82.59149585       2.20689015  T       0.00000000       0.00000000       0.00000000
W       15.60842779      82.59149578       3.13501387  T       0.00000000       0.00000000       0.00000000
W       14.30837047      84.84399258       1.28080239  T       0.00000000       0.00000000       0.00000000
W       16.90945274      84.84399384       2.19574359  T       0.00000000       0.00000000       0.00000000
W       19.51054376      84.84399584       3.11023639  T       0.00000000       0.00000000       0.00000000
W       18.21043919      87.09650218       1.25593668  T       0.00000000       0.00000000       0.00000000
W       20.81153927      87.09650879       2.16938082  T       0.00000000       0.00000000       0.00000000
W       15.60934670      87.09649739       3.10068413  T       0.00000000       0.00000000       0.00000000
W       14.30918878      89.34900703       1.24781874  T       0.00000000       0.00000000       0.00000000
W       16.91027851      89.34901556       2.16138335  T       0.00000000       0.00000000       0.00000000
W       19.51137375      89.34902682       3.07439269  T       0.00000000       0.00000000       0.00000000
W       18.21115476      91.60155300       1.22169882  T       0.00000000       0.00000000       0.00000000
W       20.81224423      91.60157468       2.13372457  T       0.00000000       0.00000000       0.00000000
W       15.61006768      91.60153618       3.06777178  T       0.00000000       0.00000000       0.00000000
W       16.91088927      93.85408698       2.12868275  T       0.00000000       0.00000000       0.00000000
W       19.51196584      93.85411614       3.04043817  T       0.00000000       0.00000000       0.00000000
W       18.21164624      96.10666521       1.18935516  T       0.00000000       0.00000000       0.00000000
W       20.81270441      96.10671144       2.10021860  T       0.00000000       0.00000000       0.00000000
W       15.61058374      96.10662814       3.03653483  T       0.00000000       0.00000000       0.00000000
W       16.91129202      98.35922086       2.09785801  T       0.00000000       0.00000000       0.00000000
W       19.51233356      98.35927639       3.00859801  T       0.00000000       0.00000000       0.00000000
W       18.21193424     100.61184669       1.15907204  T       0.00000000       0.00000000       0.00000000
W       20.81294879     100.61192536       2.06902617  T       0.00000000       0.00000000       0.00000000
W       19.51250957     102.86450941       2.97898211  T       0.00000000       0.00000000       0.00000000
W       20.81301950     105.11721162       2.04019630  T       0.00000000       0.00000000       0.00000000
W       27.30516284      30.78612352       0.79612056  T       0.00000000       0.00000000       0.00000000
W       26.00449760      33.03824595      -1.06183030  T       0.00000000       0.00000000       0.00000000
W       28.60558264      33.03850482      -0.12900836  T       0.00000000       0.00000000       0.00000000
W       24.70387456      35.29040420      -0.16137773  T       0.00000000       0.00000000       0.00000000
W       27.30492281      35.29062343       0.77089599  T       0.00000000       0.00000000       0.00000000
W       26.00431193      37.54278246      -1.08826559  T       0.00000000       0.00000000       0.00000000
W       28.60534932      37.54299575      -0.15569328  T       0.00000000       0.00000000       0.00000000
W       23.40330240      37.54260228       0.73881088  T       0.00000000       0.00000000       0.00000000
W       22.10278883      39.79484256      -1.11992608  T       0.00000000       0.00000000       0.00000000
W       24.70375945      39.79498580      -0.18895183  T       0.00000000       0.00000000       0.00000000
W       27.30475454      39.79515744       0.74292310  T       0.00000000       0.00000000       0.00000000
W       26.00422685      42.04736831      -1.11743811  T       0.00000000       0.00000000       0.00000000
W       28.60520489      42.04752980      -0.18536342  T       0.00000000       0.00000000       0.00000000
W       23.40327340      42.04723531       0.71018679  T       0.00000000       0.00000000       0.00000000
W       22.10285971      44.29953074      -1.14949586  T       0.00000000       0.00000000       0.00000000
W       24.70377443      44.29962950      -0.21921631  T       0.00000000       0.00000000       0.00000000
W       27.30470829      44.29975091       0.71199266  T       0.00000000       0.00000000       0.00000000
W       26.00429683      46.55202650      -1.14949797  T       0.00000000       0.00000000       0.00000000
W       28.60497324      46.55199114      -0.21823376  F      -0.00020704      -0.00013095      -0.00000139
W       23.40340270      46.55193963       0.67895523  T       0.00000000       0.00000000       0.00000000
W       22.10311370      48.80429515      -1.18155537  T       0.00000000       0.00000000       0.00000000
W       24.70397490      48.80435376      -0.25225583  T       0.00000000       0.00000000       0.00000000
W       27.30460453      48.80429608       0.67796810  F      -0.00021695      -0.00011382       0.00000139
W       26.00434137      51.05665788      -1.18449729  F      -0.00023056      -0.00010013       0.00000402
W       28.60494371      51.05658220      -0.25440575  F      -0.00031499      -0.00015294       0.00000375
W       23.40374271      51.05672751       0.64510065  T       0.00000000       0.00000000       0.00000000
W       22.10359621      53.30914081      -1.21605035  T       0.00000000       0.00000000       0.00000000
W       24.70418322      53.30906828      -0.28803666  F      -0.00024135      -0.00008891       0.00000586
W       27.30475925      53.30897994       0.64083814  F      -0.00033240      -0.00014150       0.00000652
W       26.00470043      55.56142413      -1.22235923  F      -0.00032764      -0.00013572       0.00000541
W       28.60519955      55.56131331      -0.29384752  F      -0.00030727      -0.00012931       0.00000919
W       23.40413646      55.56152105       0.60873868  F      -0.00021561      -0.00007035       0.00000657
W       22.10433764      57.81406039      -1.25279923  T       0.00000000       0.00000000       0.00000000
W       24.70478339      57.81391961      -0.32639750  F      -0.00025019      -0.00010000       0.00000246
W       27.30524734      57.81380587       0.60075168  F      -0.00029913      -0.00011449       0.00001359
W       26.00539997      60.06634023      -1.26281989  F      -0.00029822      -0.00007585       0.00001507
W       28.60582180      60.06621071      -0.33631080  F      -0.00024394      -0.00007093       0.00001788
W       23.40491843      60.06645608       0.57011734  F      -0.00022285      -0.00003930       0.00000665
W       22.10508073      62.31897360      -1.29144700  F      -0.00025003      -0.00002913       0.00001213
W       24.70561719      62.31888605      -0.36696932  F      -0.00033179      -0.00004773       0.00001665
W       27.30607079      62.31877320       0.55807419  F      -0.00027646      -0.00005294       0.00002046
W       26.00639139      64.57133880      -1.30542024  F      -0.00032007      -0.00004620       0.00002124
W       28.60681797      64.57123673      -0.38129132  F      -0.00022515      -0.00003659       0.00002496
W       23.40588979      64.57142223       0.52967299  F      -0.00035169      -0.00004947       0.00001568
W       22.10622494      66.82396138      -1.33154912  F      -0.00028158      -0.00003915       0.00000849
W       24.70676428      66.82389834      -0.40922873  F      -0.00033916      -0.00004301       0.00002291
W       27.30723858      66.82382500       0.51341185  F      -0.00025620      -0.00003082       0.00002618
W       26.00768907      69.07640017      -1.34948697  F      -0.00029021      -0.00002303       0.00002473
W       28.60815890      69.07634404      -0.42801606  F      -0.00021285      -0.00001711       0.00002996
W       23.40715683      69.07645014       0.48798133  F      -0.00032930      -0.00002827       0.00001673
W       22.10755352      71.32899155      -1.37247646  F      -0.00026154      -0.00000580       0.00000794
W       24.70814058      71.32895857      -0.45246564  F      -0.00031049      -0.00000717       0.00002439
W       27.30867362      71.32892792       0.46758886  F      -0.00023531      -0.00000546       0.00002871
W       26.00916193      73.58148678       1.36455178  F      -0.00027504       0.00001043       0.00002529
W       28.60971442      73.58148229       2.28323886  F      -0.00020733       0.00000557       0.00003115
W       23.40855760      73.58149834       3.20449580  F      -0.00031513       0.00001369       0.00001722
W       22.10893178      75.83401910       1.34520215  F      -0.00026127       0.00002804       0.00000904
W       24.70960072      75.83402081       2.26287427  F      -0.00030810       0.00002857       0.00002349
W       27.31022293      75.83403657       3.18030929  F      -0.00023347       0.00002027       0.00002778
W       26.01066056      78.08656200       1.32014769  F      -0.00027974       0.00003651       0.00002299
W       28.61130836      78.08661123       2.23610447  F      -0.00020706       0.00002730       0.00002784
W       23.40996559      78.08653118       3.16252492  F      -0.00031350       0.00003792       0.00001545
W       22.11027004      80.33901817       1.30472998  F      -0.00021919       0.00002537       0.00000837
W       24.71102140      80.33906298       2.22016350  F      -0.00029423       0.00004903       0.00001847
W       27.31172612      80.33912806       3.13510662  F      -0.00024095       0.00004481       0.00002303
W       26.01204969      82.59162627       1.27691929  F      -0.00027961       0.00007116       0.00001917
W       28.61277256      82.59172238       2.19036852  F      -0.00021485       0.00005256       0.00002186
W       23.41130175      82.59155995       3.12154714  F      -0.00023939       0.00006530       0.00000656
W       22.11142300      84.84404413       1.26549966  F      -0.00020073       0.00004846       0.00000937
W       24.71226023      84.84411088       2.17890248  F      -0.00029760       0.00008288       0.00001135
W       27.31303921      84.84420926       3.09161543  F      -0.00026790       0.00007390       0.00001600
W       26.01320600      87.09667890       1.23561697  F      -0.00028472       0.00007582       0.00001284
W       28.61398632      87.09682401       2.14690865  F      -0.00023740       0.00006975       0.00001374
W       23.41237770      87.09657888       3.08222453  F      -0.00021577       0.00005267       0.00000939
W       22.11247400      89.34904172       1.22803686  T       0.00000000       0.00000000       0.00000000
W       24.71328690      89.34914520       2.13970802  F      -0.00019529       0.00005389       0.00000803
W       27.31409774      89.34928713       3.05054055  F      -0.00025011       0.00007516       0.00001028
W       26.01412340      91.60175036       1.19679522  F      -0.00017102       0.00005848       0.00000563
W       28.61491270      91.60194106       2.10634469  F      -0.00021709       0.00008259       0.00000649
W       23.41333472      91.60160272       3.04503018  T       0.00000000       0.00000000       0.00000000
W       22.11304057      93.85415312       1.19275316  T       0.00000000       0.00000000       0.00000000
W       24.71411109      93.85420022       2.10299974  T       0.00000000       0.00000000       0.00000000
W       27.31487451      93.85440048       3.01234376  F      -0.00015121       0.00006715       0.00000288
W       26.01479662      96.10684207       1.16079106  T       0.00000000       0.00000000       0.00000000
W       28.61553371      96.10710095       2.06902180  F      -0.00013858       0.00008004      -0.00000000
W       23.41375565      96.10676932       3.01030744  T       0.00000000       0.00000000       0.00000000
W       22.11336598      98.35934488       1.15986093  T       0.00000000       0.00000000       0.00000000
W       24.71438592      98.35942961       2.06902418  T       0.00000000       0.00000000       0.00000000
W       27.31538920      98.35953476       2.97725507  T       0.00000000       0.00000000       0.00000000
W       26.01493162     100.61213872       1.12774104  T       0.00000000       0.00000000       0.00000000
W       28.61589131     100.61228253       2.03504666  T       0.00000000       0.00000000       0.00000000
W       23.41394923     100.61202135       2.97818953  T       0.00000000       0.00000000       0.00000000
W       22.11349225     102.86461577       1.12945443  T       0.00000000       0.00000000       0.00000000
W       24.71445605     102.86474414       2.03783208  T       0.00000000       0.00000000       0.00000000
W       27.31539676     102.86489925       2.94529568  T       0.00000000       0.00000000       0.00000000
W       26.01489136     105.11751455       1.09761293  T       0.00000000       0.00000000       0.00000000
W       28.61578859     105.11771127       2.00432487  T       0.00000000       0.00000000       0.00000000
W       23.41396694     105.11734973       2.94869757  T       0.00000000       0.00000000       0.00000000
W       22.11346774     107.36995449       1.10151982  T       0.00000000       0.00000000       0.00000000
W       24.71437828     107.37012753       2.00937045  T       0.00000000       0.00000000       0.00000000
W       27.31526259     107.37033167       2.91635291  T       0.00000000       0.00000000       0.00000000
W       26.01473359     109.62294757       1.07028207  T       0.00000000       0.00000000       0.00000000
W       28.61557900     109.62319236       1.97666919  T       0.00000000       0.00000000       0.00000000
W       27.31504151     111.87580640       2.89023590  T       0.00000000       0.00000000       0.00000000
W       28.61531140     114.12869901       1.95183069  T       0.00000000       0.00000000       0.00000000
W       36.40972176      24.03073446      -0.03938192  T       0.00000000       0.00000000       0.00000000
W       32.50775461      26.28232923      -0.07262704  T       0.00000000       0.00000000       0.00000000
W       35.10895065      26.28273423       0.86223139  T       0.00000000       0.00000000       0.00000000
W       33.80818370      28.53473960      -0.99551662  T       0.00000000       0.00000000       0.00000000
W       36.40938687      28.53515726      -0.06004354  T       0.00000000       0.00000000       0.00000000
W       31.20700845      28.53436507       0.82865126  T       0.00000000       0.00000000       0.00000000
W       29.90628125      30.78642101      -1.02931430  T       0.00000000       0.00000000       0.00000000
W       32.50742956      30.78675964      -0.09512391  T       0.00000000       0.00000000       0.00000000
W       35.10860884      30.78714296       0.84001343  T       0.00000000       0.00000000       0.00000000
W       33.80784677      33.03914656      -1.01929837  T       0.00000000       0.00000000       0.00000000
W       36.40902961      33.03953848      -0.08354817  T       0.00000000       0.00000000       0.00000000
W       31.20669829      33.03880347       0.80472489  T       0.00000000       0.00000000       0.00000000
W       29.90600101      35.29087968      -1.05464344  T       0.00000000       0.00000000       0.00000000
W       32.50711241      35.29117836      -0.12045624  T       0.00000000       0.00000000       0.00000000
W       35.10825988      35.29152507       0.81480188  T       0.00000000       0.00000000       0.00000000
W       33.80752387      37.54354520      -1.04619617  T       0.00000000       0.00000000       0.00000000
W       36.40844601      37.54368324      -0.11038157  F      -0.00014534      -0.00017322      -0.00000665
W       31.20641863      37.54324789       0.77787808  T       0.00000000       0.00000000       0.00000000
W       29.90577861      39.79536313      -1.08294441  T       0.00000000       0.00000000       0.00000000
W       32.50666710      39.79547379      -0.14900256  F      -0.00016867      -0.00015149      -0.00000657
W       35.10762479      39.79566767       0.78613187  F      -0.00021157      -0.00016656      -0.00000245
W       33.80686516      42.04767672      -1.07664018  F      -0.00028124      -0.00021579      -0.00000541
W       36.40775827      42.04779239      -0.14102049  F      -0.00024851      -0.00020167      -0.00001358
W       31.20600933      42.04757383       0.74777190  F      -0.00019763      -0.00016451      -0.00000586
W       29.90544398      44.29974916      -1.11450070  F      -0.00020197      -0.00014957      -0.00000401
W       32.50622088      44.29978294      -0.18110577  F      -0.00028865      -0.00021705      -0.00000651
W       35.10701879      44.29983047       0.75357756  F      -0.00026545      -0.00020137      -0.00000919
W       33.80639158      46.55196153      -1.11097603  F      -0.00026403      -0.00018663      -0.00000641
W       36.40712986      46.55195862      -0.17595028  F      -0.00019340      -0.00014338      -0.00000998
W       31.20567969      46.55197474       0.71413761  F      -0.00028989      -0.00019629      -0.00000375
W       29.90525143      48.80424368      -1.14950048  F      -0.00029874      -0.00017248       0.00000000
W       32.50588736      48.80418375      -0.21705354  F      -0.00026640      -0.00016608      -0.00000227
W       35.10653325      48.80412446       0.71674017  F      -0.00019486      -0.00012955      -0.00000526
W       33.80608281      51.05638970      -1.14950353  F      -0.00020019      -0.00011565      -0.00000000
W       36.40665910      51.05628604      -0.21560735  F      -0.00018266      -0.00011338      -0.00000345
W       31.20551765      51.05649049       0.67678238  F      -0.00027703      -0.00014773       0.00000227
W       29.90528839      53.30887144      -1.18802737  F      -0.00029372      -0.00013544       0.00000642
W       32.50578942      53.30874561      -0.25701434  F      -0.00020964      -0.00010411       0.00000526
W       35.10628136      53.30860672       0.67532945  F      -0.00018946      -0.00010166       0.00000344
W       33.80608371      55.56102263      -1.19234665  F      -0.00019366      -0.00008923       0.00001002
W       36.40649598      55.56084653      -0.26024364  F      -0.00024643      -0.00012247       0.00000909
W       31.20565520      55.56117839       0.63567681  F      -0.00022096      -0.00009595       0.00000998
W       29.90567289      57.81367218      -1.22996914  F      -0.00023001      -0.00008726       0.00001479
W       32.50606129      57.81351518      -0.30093709  F      -0.00019463      -0.00007625       0.00001589
W       35.10641667      57.81333282       0.62930239  F      -0.00024528      -0.00010339       0.00001736
W       33.80652533      60.06589100      -1.23933492  F      -0.00023779      -0.00008274       0.00002403
W       36.40680307      60.06568564      -0.30977649  F      -0.00031257      -0.00011726       0.00002608
W       31.20619622      60.06606319       0.59104202  F      -0.00019541      -0.00006161       0.00002029
W       29.90645964      62.31864415      -1.27495084  F      -0.00020369      -0.00004691       0.00002327
W       32.50679285      62.31849406      -0.34845147  F      -0.00022625      -0.00006179       0.00002858
W       35.10706457      62.31831408       0.57900061  F      -0.00030177      -0.00009173       0.00003329
W       33.80747918      64.57097235      -1.28989613  F      -0.00028511      -0.00006707       0.00003796
W       36.40769695      64.57079375      -0.36362398  F      -0.00035546      -0.00008800       0.00004127
W       31.20718121      64.57111653       0.54342096  F      -0.00021461      -0.00004296       0.00003086
W       29.90764965      66.82373781      -1.32229301  F      -0.00020778      -0.00002830       0.00003124
W       32.50799752      66.82363361      -0.39879902  F      -0.00026248      -0.00004419       0.00003982
W       35.10826787      66.82350458       0.52526307  F      -0.00033295      -0.00006206       0.00004507
W       33.80891384      69.07619888      -1.34300329  F      -0.00030863      -0.00003848       0.00004662
W       36.40916991      69.07609720      -0.42060330  F      -0.00037672      -0.00004577       0.00004903
W       31.20857054      69.07627863       0.49370432  F      -0.00023529      -0.00002430       0.00003872
W       29.90915472      71.32889633      -1.37102903  F      -0.00021149      -0.00000818       0.00003550
W       32.50957945      71.32886048      -0.45083987  F      -0.00027778      -0.00001679       0.00004530
W       35.10993080      71.32881565       0.46944180  F      -0.00034025      -0.00002390       0.00004876
W       33.81066790      73.58148509       1.36149818  F      -0.00030957      -0.00000307       0.00004768
W       36.41104164      73.58148759       2.27974760  F      -0.00037400      -0.00000070       0.00004726
W       31.21021978      73.58148249       3.20180622  F      -0.00023945       0.00000125       0.00004068
W       29.91080279      75.83406478       1.33873603  F      -0.00020780       0.00001472       0.00003425
W       32.51133955      75.83410423       2.25556495  F      -0.00027122       0.00001512       0.00004349
W       35.11181945      75.83415535       3.17199238  F      -0.00032959       0.00001555       0.00004499
W       33.81249135      78.08676493       1.30776593  F      -0.00029294       0.00003301       0.00004205
W       36.41300813      78.08687585       2.22197993  F      -0.00034883       0.00004026       0.00003892
W       31.21192025      78.08667805       3.15158692  F      -0.00022498       0.00002705       0.00003583
W       29.91239883      80.33921441       1.29073844  F      -0.00019726       0.00003602       0.00002772
W       32.51304185      80.33932640       2.20441235  F      -0.00024399       0.00004364       0.00003497
W       35.11364577      80.33947007       3.11725301  F      -0.00030465       0.00005354       0.00003653
W       33.81413834      82.59201616       1.25608015  F      -0.00025687       0.00006297       0.00003080
W       36.41476852      82.59222732       2.16673682  F      -0.00031076       0.00007741       0.00002836
W       31.21346951      82.59185096       3.10304927  F      -0.00019880       0.00004744       0.00002602
W       29.91378104      84.84434787       1.24478100  F      -0.00019728       0.00005546       0.00001844
W       32.51449495      84.84452754       2.15571769  F      -0.00020212       0.00006057       0.00002198
W       35.11517931      84.84475560       3.06550969  F      -0.00026168       0.00008375       0.00002371