249
Lattice="15.927550324074248 0.0 0.0 0.0 15.927550324074248 0.0 0.0 0.0 15.927550324074248" Properties=species:S:1:pos:R:3:forces:R:3 energy=-2376.5265555064275 pbc="T T T"
W       -0.00000000      -0.00000000      -0.00000000      -0.00000000      -0.00000000      -0.00000000
W        1.59337445       1.59337445       1.59337445       0.00012168       0.00012168       0.00012168
W        0.00000000      -0.00000000       3.18595414      -0.00000000      -0.00000000       0.00034869
W        1.59368298       1.59368298       4.77883278       0.00003809       0.00003809       0.00027043
W       -0.00000000      -0.00000000       6.37130899      -0.00000000       0.00000000       0.00030733
W        1.59374816       1.59374816       7.96377516       0.00012357       0.00012357      -0.00000000
W       -0.00000000      -0.00000000       9.55624134      -0.00000000       0.00000000      -0.00030733
W        1.59368298       1.59368298      11.14871754       0.00003809       0.00003809      -0.00027043
W        0.00000000      -0.00000000      12.74159619      -0.00000000      -0.00000000      -0.00034869
W        1.59337445       1.59337445      14.33417587       0.00012168       0.00012168      -0.00012168
W       -0.00000000       3.18595414      -0.00000000      -0.00000000       0.00034869      -0.00000000
W        1.59368298       4.77883278       1.59368298       0.00003809       0.00027043       0.00003809
W       -0.00000000       3.18641567       3.18641567      -0.00000000       0.00002674       0.00002674
W        1.59489959       4.77971322       4.77971322       0.00019952       0.00004295       0.00004295
W       -0.00000000       3.18670835       6.37149490      -0.00000000      -0.00026284       0.00002763
W        1.59513408       4.78002383       7.96377516       0.00027686       0.00003068       0.00000000
W       -0.00000000       3.18670835       9.55605542      -0.00000000      -0.00026284      -0.00002763
W        1.59489959       4.77971322      11.14783710       0.00019952       0.00004295      -0.00004295
W       -0.00000000       3.18641567      12.74113465      -0.00000000       0.00002674      -0.00002674
W        1.59368298       4.77883278      14.33386735       0.00003809       0.00027043      -0.00003809
W        0.00000000       6.37130899      -0.00000000      -0.00000000       0.00030733      -0.00000000
W        1.59374816       7.96377516       1.59374816       0.00012357      -0.00000000       0.00012357
W       -0.00000000       6.37149490       3.18670835      -0.00000000       0.00002763      -0.00026284
W        1.59513408       7.96377516       4.78002383       0.00027686       0.00000000       0.00003068
W       -0.00000000       6.37190117       6.37190117       0.00000000      -0.00000210      -0.00000210
W        1.59630981       7.96377516       7.96377516       0.00058602       0.00000000       0.00000000
W       -0.00000000       6.37190117       9.55564916       0.00000000      -0.00000210       0.00000210
W        1.59513408       7.96377516      11.14752650       0.00027686      -0.00000000      -0.00003068
W       -0.00000000       6.37149490      12.74084197       0.00000000       0.00002763       0.00026284
W        1.59374816       7.96377516      14.33380216       0.00012357       0.00000000      -0.00012357
W        0.00000000       9.55624134      -0.00000000      -0.00000000      -0.00030733      -0.00000000
W        1.59368298      11.14871754       1.59368298       0.00003809      -0.00027043       0.00003809
W       -0.00000000       9.55605542       3.18670835       0.00000000      -0.00002763      -0.00026284
W        1.59489959      11.14783710       4.77971322       0.00019952      -0.00004295       0.00004295
W       -0.00000000       9.55564916       6.37190117       0.00000000       0.00000210      -0.00000210
W        1.59513408      11.14752650       7.96377516       0.00027686      -0.00003068      -0.00000000
W       -0.00000000       9.55564916       9.55564916       0.00000000       0.00000210       0.00000210
W        1.59489959      11.14783710      11.14783710       0.00019952      -0.00004295      -0.00004295
W        0.00000000       9.55605542      12.74084197       0.00000000      -0.00002763       0.00026284
W        1.59368298      11.14871754      14.33386735       0.00003809      -0.00027043      -0.00003809
W        0.00000000      12.74159619       0.00000000      -0.00000000      -0.00034869      -0.00000000
W        1.59337445      14.33417587       1.59337445       0.00012168      -0.00012168       0.00012168
W       -0.00000000      12.74113465       3.18641567      -0.00000000      -0.00002674       0.00002674
W        1.59368298      14.33386735       4.77883278       0.00003809      -0.00003809       0.00027043
W       -0.00000000      12.74084197       6.37149490       0.00000000       0.00026284       0.00002763
W        1.59374816      14.33380216       7.96377516       0.00012357      -0.00012357      -0.00000000
W       -0.00000000      12.74084197       9.55605542       0.00000000       0.00026284      -0.00002763
W        1.59368298      14.33386735      11.14871754       0.00003809      -0.00003809      -0.00027043
W        0.00000000      12.74113465      12.74113465      -0.00000000      -0.00002674      -0.00002674
W        1.59337445      14.33417587      14.33417587       0.00012168      -0.00012168      -0.00012168
W        3.18595414      -0.00000000      -0.00000000       0.00034869      -0.00000000      -0.00000000
W        4.77883278       1.59368298       1.59368298       0.00027043       0.00003809       0.00003809
W        3.18641567      -0.00000000       3.18641567       0.00002674       0.00000000       0.00002674
W        4.77971322       1.59489959       4.77971322       0.00004295       0.00019952       0.00004295
W        3.18670835      -0.00000000       6.37149490      -0.00026284      -0.00000000       0.00002763
W        4.78002383       1.59513408       7.96377516       0.00003068       0.00027686      -0.00000000
W        3.18670835      -0.00000000       9.55605542      -0.00026284      -0.00000000      -0.00002763
W        4.77971322       1.59489959      11.14783710       0.00004295       0.00019952      -0.00004295
W        3.18641567      -0.00000000      12.74113465       0.00002674      -0.00000000      -0.00002674
W        4.77883278       1.59368298      14.33386735       0.00027043       0.00003809      -0.00003809
W        3.18641567       3.18641567      -0.00000000       0.00002674       0.00002674       0.00000000
W        4.77971322       4.77971322       1.59489959       0.00004295       0.00004295       0.00019952
W        3.18788278       3.18788278       3.18788278      -0.00000547      -0.00000547      -0.00000547
W        4.78704941       4.78704941       4.78704941       0.00004652       0.00004652       0.00004652
W        3.18867545       3.18867545       6.37158861      -0.00012590      -0.00012590      -0.00001291
W        4.78512485       4.78512485       7.96377516      -0.00015645      -0.00015645      -0.00000000
W        3.18867545       3.18867545       9.55596172      -0.00012590      -0.00012590       0.00001291
W        4.78704941       4.78704941      11.14050091       0.00004652       0.00004652      -0.00004652
W        3.18788278       3.18788278      12.73966754      -0.00000547      -0.00000547       0.00000547
W        4.77971322       4.77971322      14.33265074       0.00004295       0.00004295      -0.00019952
W        3.18670835       6.37149490      -0.00000000      -0.00026284       0.00002763      -0.00000000
W        4.78002383       7.96377516       1.59513408       0.00003068      -0.00000000       0.00027686
W        3.18867545       6.37158861       3.18867545      -0.00012590      -0.00001291      -0.00012590
W        4.78512485       7.96377516       4.78512485      -0.00015645      -0.00000000      -0.00015645
W        3.19096527       6.37306165       6.37306165       0.00000932       0.00000785       0.00000785
W        4.80586591       7.96377516       7.96377516      -0.00041166      -0.00000000       0.00000000
W        3.19096527       6.37306165       9.55448867       0.00000932       0.00000785      -0.00000785
W        4.78512485       7.96377516      11.14242547      -0.00015645      -0.00000000       0.00015645
W        3.18867545       6.37158861      12.73887487      -0.00012590      -0.00001291       0.00012590
W        4.78002383       7.96377516      14.33241624       0.00003068       0.00000000      -0.00027686
W        3.18670835       9.55605542      -0.00000000      -0.00026284      -0.00002763      -0.00000000
W        4.77971322      11.14783710       1.59489959       0.00004295      -0.00004295       0.00019952
W        3.18867545       9.55596172       3.18867545      -0.00012590       0.00001291      -0.00012590
W        4.78704941      11.14050091       4.78704941       0.00004652      -0.00004652       0.00004652
W        3.19096527       9.55448867       6.37306165       0.00000932      -0.00000785       0.00000785
W        4.78512485      11.14242547       7.96377516      -0.00015645       0.00015645      -0.00000000
W        3.19096527       9.55448867       9.55448867       0.00000932      -0.00000785      -0.00000785
W        4.78704941      11.14050091      11.14050091       0.00004652      -0.00004652      -0.00004652
W        3.18867545       9.55596172      12.73887487      -0.00012590       0.00001291       0.00012590
W        4.77971322      11.14783710      14.33265074       0.00004295      -0.00004295      -0.00019952
W        3.18641567      12.74113465      -0.00000000       0.00002674      -0.00002674      -0.00000000
W        4.77883278      14.33386735       1.59368298       0.00027043      -0.00003809       0.00003809
W        3.18788278      12.73966754       3.18788278      -0.00000547       0.00000547      -0.00000547
W        4.77971322      14.33265074       4.77971322       0.00004295      -0.00019952       0.00004295
W        3.18867545      12.73887487       6.37158861      -0.00012590       0.00012590      -0.00001291
W        4.78002383      14.33241624       7.96377516       0.00003068      -0.00027686      -0.00000000
W        3.18867545      12.73887487       9.55596172      -0.00012590       0.00012590       0.00001291
W        4.77971322      14.33265074      11.14783710       0.00004295      -0.00019952      -0.00004295
W        3.18788278      12.73966754      12.73966754      -0.00000547       0.00000547       0.00000547
W        4.77883278      14.33386735      14.33386735       0.00027043      -0.00003809      -0.00003809
W        6.37130899      -0.00000000      -0.00000000       0.00030733      -0.00000000      -0.00000000
W        7.96377516       1.59374816       1.59374816      -0.00000000       0.00012357       0.00012357
W        6.37149490      -0.00000000       3.18670835       0.00002763      -0.00000000      -0.00026284
W        7.96377516       1.59513408       4.78002383      -0.00000000       0.00027686       0.00003068
W        6.37190117      -0.00000000       6.37190117      -0.00000210       0.00000000      -0.00000210
W        7.96377516       1.59630981       7.96377516       0.00000000       0.00058602       0.00000000
W        6.37190117      -0.00000000       9.55564916      -0.00000210      -0.00000000       0.00000210
W        7.96377516       1.59513408      11.14752650       0.00000000       0.00027686      -0.00003068
W        6.37149490      -0.00000000      12.74084197       0.00002763      -0.00000000       0.00026284
W        7.96377516       1.59374816      14.33380216       0.00000000       0.00012357      -0.00012357
W        6.37149490       3.18670835      -0.00000000       0.00002763      -0.00026284      -0.00000000
W        7.96377516       4.78002383       1.59513408      -0.00000000       0.00003068       0.00027686
W        6.37158861       3.18867545       3.18867545      -0.00001291      -0.00012590      -0.00012590
W        7.96377516       4.78512485       4.78512485      -0.00000000      -0.00015645      -0.00015645
W        6.37306165       3.19096527       6.37306165       0.00000785       0.00000932       0.00000785
W        7.96377516       4.80586591       7.96377516       0.00000000      -0.00041166       0.00000000
W        6.37306165       3.19096527       9.55448867       0.00000785       0.00000932      -0.00000785
W        7.96377516       4.78512485      11.14242547      -0.00000000      -0.00015645       0.00015645
W        6.37158861       3.18867545      12.73887487      -0.00001291      -0.00012590       0.00012590
W        7.96377516       4.78002383      14.33241624       0.00000000       0.00003068      -0.00027686
W        6.37190117       6.37190117      -0.00000000      -0.00000210      -0.00000210       0.00000000
W        7.96377516       7.96377516       1.59630981      -0.00000000      -0.00000000       0.00058602
W        6.37306165       6.37306165       3.19096527       0.00000785       0.00000785       0.00000932
W        7.96377516       7.96377516       4.80586591       0.00000000      -0.00000000      -0.00041166
W        6.39760696       6.39760696       6.39760696      -0.00024371      -0.00024371      -0.00024371
W        6.39760696       6.39760696       9.52994337      -0.00024371      -0.00024371       0.00024371
W        7.96377516       7.96377516      11.12168441       0.00000000      -0.00000000       0.00041166
W        6.37306165       6.37306165      12.73658505       0.00000785       0.00000785      -0.00000932
W        7.96377516       7.96377516      14.33124052       0.00000000      -0.00000000      -0.00058602
W        6.37190117       9.55564916      -0.00000000      -0.00000210       0.00000210       0.00000000
W        7.96377516      11.14752650       1.59513408       0.00000000      -0.00003068       0.00027686
W        6.37306165       9.55448867       3.19096527       0.00000785      -0.00000785       0.00000932
W        7.96377516      11.14242547       4.78512485      -0.00000000       0.00015645      -0.00015645
W        6.39760696       9.52994337       6.39760696      -0.00024371       0.00024371      -0.00024371
W        7.96377516      11.12168441       7.96377516       0.00000000       0.00041166      -0.00000000
W        6.39760696       9.52994337       9.52994337      -0.00024371       0.00024371       0.00024371
W        7.96377516      11.14242547      11.14242547      -0.00000000       0.00015645       0.00015645
W        6.37306165       9.55448867      12.73658505       0.00000785      -0.00000785      -0.00000932
W        7.96377516      11.14752650      14.33241624       0.00000000      -0.00003068      -0.00027686
W        6.37149490      12.74084197      -0.00000000       0.00002763       0.00026284      -0.00000000
W        7.96377516      14.33380216       1.59374816       0.00000000      -0.00012357       0.00012357
W        6.37158861      12.73887487       3.18867545      -0.00001291       0.00012590      -0.00012590
W        7.96377516      14.33241624       4.78002383       0.00000000      -0.00027686       0.00003068
W        6.37306165      12.73658505       6.37306165       0.00000785      -0.00000932       0.00000785
W        7.96377516      14.33124052       7.96377516       0.00000000      -0.00058602       0.00000000
W        6.37306165      12.73658505       9.55448867       0.00000785      -0.00000932      -0.00000785
W        7.96377516      14.33241624      11.14752650       0.00000000      -0.00027686      -0.00003068
W        6.37158861      12.73887487      12.73887487      -0.00001291       0.00012590       0.00012590
W        7.96377516      14.33380216      14.33380216       0.00000000      -0.00012357      -0.00012357
W        9.55624134      -0.00000000       0.00000000      -0.00030733      -0.00000000      -0.00000000
W       11.14871754       1.59368298       1.59368298      -0.00027043       0.00003809       0.00003809
W        9.55605542      -0.00000000       3.18670835      -0.00002763      -0.00000000      -0.00026284
W       11.14783710       1.59489959       4.77971322      -0.00004295       0.00019952       0.00004295
W        9.55564916      -0.00000000       6.37190117       0.00000210      -0.00000000      -0.00000210
W       11.14752650       1.59513408       7.96377516      -0.00003068       0.00027686      -0.00000000
W        9.55564916      -0.00000000       9.55564916       0.00000210       0.00000000       0.00000210
W       11.14783710       1.59489959      11.14783710      -0.00004295       0.00019952      -0.00004295
W        9.55605542       0.00000000      12.74084197      -0.00002763       0.00000000       0.00026284
W       11.14871754       1.59368298      14.33386735      -0.00027043       0.00003809      -0.00003809
W        9.55605542       3.18670835      -0.00000000      -0.00002763      -0.00026284       0.00000000
W       11.14783710       4.77971322       1.59489959      -0.00004295       0.00004295       0.00019952
W        9.55596172       3.18867545       3.18867545       0.00001291      -0.00012590      -0.00012590
W       11.14050091       4.78704941       4.78704941      -0.00004652       0.00004652       0.00004652
W        9.55448867       3.19096527       6.37306165      -0.00000785       0.00000932       0.00000785
W       11.14242547       4.78512485       7.96377516       0.00015645      -0.00015645      -0.00000000
W        9.55448867       3.19096527       9.55448867      -0.00000785       0.00000932      -0.00000785
W       11.14050091       4.78704941      11.14050091      -0.00004652       0.00004652      -0.00004652
W        9.55596172       3.18867545      12.73887487       0.00001291      -0.00012590       0.00012590
W       11.14783710       4.77971322      14.33265074      -0.00004295       0.00004295      -0.00019952
W        9.55564916       6.37190117      -0.00000000       0.00000210      -0.00000210      -0.00000000
W       11.14752650       7.96377516       1.59513408      -0.00003068      -0.00000000       0.00027686
W        9.55448867       6.37306165       3.19096527      -0.00000785       0.00000785       0.00000932
W       11.14242547       7.96377516       4.78512485       0.00015645      -0.00000000      -0.00015645
W        9.52994337       6.39760696       6.39760696       0.00024371      -0.00024371      -0.00024371
W       11.12168441       7.96377516       7.96377516       0.00041166      -0.00000000       0.00000000
W        9.52994337       6.39760696       9.52994337       0.00024371      -0.00024371       0.00024371
W       11.14242547       7.96377516      11.14242547       0.00015645      -0.00000000       0.00015645
W        9.55448867       6.37306165      12.73658505      -0.00000785       0.00000785      -0.00000932
W       11.14752650       7.96377516      14.33241624      -0.00003068      -0.00000000      -0.00027686
W        9.55564916       9.55564916      -0.00000000       0.00000210       0.00000210      -0.00000000
W       11.14783710      11.14783710       1.59489959      -0.00004295      -0.00004295       0.00019952
W        9.55448867       9.55448867       3.19096527      -0.00000785      -0.00000785       0.00000932
W       11.14050091      11.14050091       4.78704941      -0.00004652      -0.00004652       0.00004652
W        9.52994337       9.52994337       6.39760696       0.00024371       0.00024371      -0.00024371
W       11.14242547      11.14242547       7.96377516       0.00015645       0.00015645      -0.00000000
W        9.52994337       9.52994337       9.52994337       0.00024371       0.00024371       0.00024371
W       11.14050091      11.14050091      11.14050091      -0.00004652      -0.00004652      -0.00004652
W        9.55448867       9.55448867      12.73658505      -0.00000785      -0.00000785      -0.00000932
W       11.14783710      11.14783710      14.33265074      -0.00004295      -0.00004295      -0.00019952
W        9.55605542      12.74084197      -0.00000000      -0.00002763       0.00026284      -0.00000000
W       11.14871754      14.33386735       1.59368298      -0.00027043      -0.00003809       0.00003809
W        9.55596172      12.73887487       3.18867545       0.00001291       0.00012590      -0.00012590
W       11.14783710      14.33265074       4.77971322      -0.00004295      -0.00019952       0.00004295
W        9.55448867      12.73658505       6.37306165      -0.00000785      -0.00000932       0.00000785
W       11.14752650      14.33241624       7.96377516      -0.00003068      -0.00027686       0.00000000
W        9.55448867      12.73658505       9.55448867      -0.00000785      -0.00000932      -0.00000785
W       11.14783710      14.33265074      11.14783710      -0.00004295      -0.00019952      -0.00004295
W        9.55596172      12.73887487      12.73887487       0.00001291       0.00012590       0.00012590
W       11.14871754      14.33386735      14.33386735      -0.00027043      -0.00003809      -0.00003809
W       12.74159619      -0.00000000      -0.00000000      -0.00034869      -0.00000000      -0.00000000
W       14.33417587       1.59337445       1.59337445      -0.00012168       0.00012168       0.00012168
W       12.74113465      -0.00000000       3.18641567      -0.00002674       0.00000000       0.00002674
W       14.33386735       1.59368298       4.77883278      -0.00003809       0.00003809       0.00027043
W       12.74084197      -0.00000000       6.37149490       0.00026284       0.00000000       0.00002763
W       14.33380216       1.59374816       7.96377516      -0.00012357       0.00012357      -0.00000000
W       12.74084197      -0.00000000       9.55605542       0.00026284      -0.00000000      -0.00002763
W       14.33386735       1.59368298      11.14871754      -0.00003809       0.00003809      -0.00027043
W       12.74113465      -0.00000000      12.74113465      -0.00002674       0.00000000      -0.00002674
W       14.33417587       1.59337445      14.33417587      -0.00012168       0.00012168      -0.00012168
W       12.74113465       3.18641567      -0.00000000      -0.00002674       0.00002674      -0.00000000
W       14.33386735       4.77883278       1.59368298      -0.00003809       0.00027043       0.00003809
W       12.73966754       3.18788278       3.18788278       0.00000547      -0.00000547      -0.00000547
W       14.33265074       4.77971322       4.77971322      -0.00019952       0.00004295       0.00004295
W       12.73887487       3.18867545       6.37158861       0.00012590      -0.00012590      -0.00001291
W       14.33241624       4.78002383       7.96377516      -0.00027686       0.00003068      -0.00000000
W       12.73887487       3.18867545       9.55596172       0.00012590      -0.00012590       0.00001291
W       14.33265074       4.77971322      11.14783710      -0.00019952       0.00004295      -0.00004295
W       12.73966754       3.18788278      12.73966754       0.00000547      -0.00000547       0.00000547
W       14.33386735       4.77883278      14.33386735      -0.00003809       0.00027043      -0.00003809
W       12.74084197       6.37149490       0.00000000       0.00026284       0.00002763      -0.00000000
W       14.33380216       7.96377516       1.59374816      -0.00012357      -0.00000000       0.00012357
W       12.73887487       6.37158861       3.18867545       0.00012590      -0.00001291      -0.00012590
W       14.33241624       7.96377516       4.78002383      -0.00027686      -0.00000000       0.00003068
W       12.73658505       6.37306165       6.37306165      -0.00000932       0.00000785       0.00000785
W       14.33124052       7.96377516       7.96377516      -0.00058602      -0.00000000       0.00000000
W       12.73658505       6.37306165       9.55448867      -0.00000932       0.00000785      -0.00000785
W       14.33241624       7.96377516      11.14752650      -0.00027686      -0.00000000      -0.00003068
W       12.73887487       6.37158861      12.73887487       0.00012590      -0.00001291       0.00012590
W       14.33380216       7.96377516      14.33380216      -0.00012357      -0.00000000      -0.00012357
W       12.74084197       9.55605542       0.00000000       0.00026284      -0.00002763      -0.00000000
W       14.33386735      11.14871754       1.59368298      -0.00003809      -0.00027043       0.00003809
W       12.73887487       9.55596172       3.18867545       0.00012590       0.00001291      -0.00012590
W       14.33265074      11.14783710       4.77971322      -0.00019952      -0.00004295       0.00004295
W       12.73658505       9.55448867       6.37306165      -0.00000932      -0.00000785       0.00000785
W       14.33241624      11.14752650       7.96377516      -0.00027686      -0.00003068       0.00000000
W       12.73658505       9.55448867       9.55448867      -0.00000932      -0.00000785      -0.00000785
W       14.33265074      11.14783710      11.14783710      -0.00019952      -0.00004295      -0.00004295
W       12.73887487       9.55596172      12.73887487       0.00012590       0.00001291       0.00012590
W       14.33386735      11.14871754      14.33386735      -0.00003809      -0.00027043      -0.00003809
W       12.74113465      12.74113465      -0.00000000      -0.00002674      -0.00002674      -0.00000000
W       14.33417587      14.33417587       1.59337445      -0.00012168      -0.00012168       0.00012168
W       12.73966754      12.73966754       3.18788278       0.00000547       0.00000547      -0.00000547
W       14.33386735      14.33386735       4.77883278      -0.00003809      -0.00003809       0.00027043
W       12.73887487      12.73887487       6.37158861       0.00012590       0.00012590      -0.00001291
W       14.33380216      14.33380216       7.96377516      -0.00012357      -0.00012357      -0.00000000
W       12.73887487      12.73887487       9.55596172       0.00012590       0.00012590       0.00001291
W       14.33386735      14.33386735      11.14871754      -0.00003809      -0.00003809      -0.00027043
W       12.73966754      12.73966754      12.73966754       0.00000547       0.00000547       0.00000547
W       14.33417587      14.33417587      14.33417587      -0.00012168      -0.00012168      -0.00012168
249
Lattice="15.927550324074248 0.0 0.0 0.0 15.927550324074248 0.0 0.0 0.0 15.927550324074248" Properties=species:S:1:pos:R:3:forces:R:3 energy=-2376.3178302642764 pbc="T T T"
W        0.00134410       0.00134410       0.00134410       0.00273752       0.00273752       0.00273752
W        1.59744331       1.59744331       1.59744331       0.00439640       0.00439640       0.00439640
W        0.00303261       0.00303261       3.18661700       0.00490342       0.00490342       0.00467115
W        1.60104335       1.60104335       4.78099053       0.00339672       0.00339672       0.00806444
W        0.00321899       0.00321899       6.37106811       0.00378713       0.00378713       0.00426519
W        1.59872314       1.59872314       7.96410974       0.00202523       0.00202523       0.00399230
W        0.00111032       0.00111032       9.55615676       0.00226848       0.00226848       0.00267653
W        1.59460041       1.59460041      11.14983234       0.00148209       0.00148209       0.00567389
W        0.00040239       0.00040239      12.74250116       0.00129108       0.00129108       0.00219656
W        1.59431451       1.59431451      14.33730841       0.00429445       0.00429445       0.00410233
W        0.00303261       3.18661700       0.00303261       0.00490342       0.00467115       0.00490342
W        1.60104335       4.78099053       1.60104335       0.00339672       0.00806444       0.00339672
W        0.00786532       3.18962087       3.18962087       0.00280051       0.00477482       0.00477482
W        1.61117083       4.78805008       4.78805008      -0.00210207       0.00101351       0.00101351
W        0.00902161       3.19055620       6.37270745       0.00185919       0.00238114       0.00558834
W        1.60421127       4.78544768       7.96693251       0.00348039       0.00164611       0.00968561
W        0.00353462       3.18731572       9.55673337       0.00213734       0.00124024       0.00404222
W        1.59475441       4.77878103      11.15226215       0.00932418       0.00536178       0.00109014
W        0.00099508       3.18597767      12.74340764       0.00327559       0.00226763       0.00329012
W        1.59514477       4.77902713      14.33940177       0.00452966       0.00384259       0.00223300
W        0.00321899       6.37106811       0.00321899       0.00378713       0.00426519       0.00378713
W        1.59872314       7.96410974       1.59872314       0.00202523       0.00399230       0.00202523
W        0.00902161       6.37270745       3.19055620       0.00185919       0.00558834       0.00238114
W        1.60421127       7.96693251       4.78544768       0.00348039       0.00968561       0.00164611
W        0.01055191       6.37479791       6.37479791      -0.00373679       0.00330919       0.00330919
W        1.59242078       7.96869171       7.96869171       0.04470299       0.00024967       0.00024967
W        0.00047311       6.37199174       9.55791278       0.00776846       0.00179864       0.00285138
W        1.59002971       7.96379823      11.15277179       0.01389661       0.00543741      -0.00197139
W       -0.00082373       6.37101469      12.74376178       0.00587873       0.00011543       0.00195228
W        1.59340953       7.96379394      14.33835030       0.00320125       0.00160819       0.00091590
W        0.00111032       9.55615676       0.00111032       0.00226848       0.00267653       0.00226848
W        1.59460041      11.14983234       1.59460041       0.00148209       0.00567389       0.00148209
W        0.00353462       9.55673337       3.18731572       0.00213734       0.00404222       0.00124024