249
Lattice="15.927550324120363 0.0 0.0 0.0 15.927550324120363 0.0 0.0 0.0 15.927550324120363" Properties=species:S:1:pos:R:3:forces:R:3 energy=-2376.859810773844 pbc="T T T"
W        0.00000000       0.00000000       0.00000000       0.00000000       0.00000000       0.00000000
W        1.59339968       1.59339968       1.59339968      -0.00007475      -0.00007475      -0.00007475
W       -0.00000000       0.00000000       3.18590030       0.00000000       0.00000000       0.00060706
W        1.59371472       1.59371472       4.77877344      -0.00019611      -0.00019611       0.00045262
W        0.00000000       0.00000000       6.37124882       0.00000000       0.00000000       0.00030566
W        1.59369673       1.59369673       7.96377516      -0.00002721      -0.00002721      -0.00000000
W        0.00000000       0.00000000       9.55630151       0.00000000       0.00000000      -0.00030566
W        1.59371472       1.59371472      11.14877688      -0.00019611      -0.00019611      -0.00045262
W        0.00000000      -0.00000000      12.74165002       0.00000000       0.00000000      -0.00060706
W        1.59339968       1.59339968      14.33415064      -0.00007475      -0.00007475       0.00007475
W       -0.00000000       3.18590030      -0.00000000       0.00000000       0.00060706       0.00000000
W        1.59371472       4.77877344       1.59371472      -0.00019611       0.00045262      -0.00019611
W        0.00000000       3.18640625       3.18640625       0.00000000       0.00010723       0.00010723
W        1.59498771       4.77967598       4.77967598       0.00011616       0.00024236       0.00024236
W        0.00000000       3.18663811       6.37145077       0.00000000      -0.00024694      -0.00022879
W        1.59500167       4.77984397       7.96377516       0.00024059       0.00030026      -0.00000000
W        0.00000000       3.18663811       9.55609955       0.00000000      -0.00024694       0.00022879
W        1.59498771       4.77967598      11.14787434       0.00011616       0.00024236      -0.00024236
W        0.00000000       3.18640625      12.74114407       0.00000000       0.00010723      -0.00010723
W        1.59371472       4.77877344      14.33383561      -0.00019611       0.00045262       0.00019611
W        0.00000000       6.37124882       0.00000000       0.00000000       0.00030566       0.00000000
W        1.59369673       7.96377516       1.59369673      -0.00002721      -0.00000000      -0.00002721
W        0.00000000       6.37145077       3.18663811       0.00000000      -0.00022879      -0.00024694
W        1.59500167       7.96377516       4.77984397       0.00024059      -0.00000000       0.00030026
W        0.00000000       6.37177011       6.37177011      -0.00000000      -0.00014545      -0.00014545
W        1.59530715       7.96377516       7.96377516       0.00050204      -0.00000000      -0.00000000
W        0.00000000       6.37177011       9.55578022      -0.00000000      -0.00014545       0.00014545
W        1.59500167       7.96377516      11.14770636       0.00024059       0.00000000      -0.00030026
W        0.00000000       6.37145077      12.74091221       0.00000000      -0.00022879       0.00024694
W        1.59369673       7.96377516      14.33385359      -0.00002721      -0.00000000       0.00002721
W        0.00000000       9.55630151       0.00000000       0.00000000      -0.00030566       0.00000000
W        1.59371472      11.14877688       1.59371472      -0.00019611      -0.00045262      -0.00019611
W        0.00000000       9.55609955       3.18663811       0.00000000       0.00022879      -0.00024694
W        1.59498771      11.14787434       4.77967598       0.00011616      -0.00024236       0.00024236
W        0.00000000       9.55578022       6.37177011      -0.00000000       0.00014545      -0.00014545
W        1.59500167      11.14770636       7.96377516       0.00024059      -0.00030026      -0.00000000
W        0.00000000       9.55578022       9.55578022      -0.00000000       0.00014545       0.00014545
W        1.59498771      11.14787434      11.14787434       0.00011616      -0.00024236      -0.00024236
W        0.00000000       9.55609955      12.74091221       0.00000000       0.00022879       0.00024694
W        1.59371472      11.14877688      14.33383561      -0.00019611      -0.00045262       0.00019611
W       -0.00000000      12.74165002       0.00000000       0.00000000      -0.00060706       0.00000000
W        1.59339968      14.33415064       1.59339968      -0.00007475       0.00007475      -0.00007475
W        0.00000000      12.74114407       3.18640625      -0.00000000      -0.00010723       0.00010723
W        1.59371472      14.33383561       4.77877344      -0.00019611       0.00019611       0.00045262
W        0.00000000      12.74091221       6.37145077       0.00000000       0.00024694      -0.00022879
W        1.59369673      14.33385359       7.96377516      -0.00002721       0.00002721      -0.00000000
W        0.00000000      12.74091221       9.55609955       0.00000000       0.00024694       0.00022879
W        1.59371472      14.33383561      11.14877688      -0.00019611       0.00019611      -0.00045262
W        0.00000000      12.74114407      12.74114407       0.00000000      -0.00010723      -0.00010723
W        1.59339968      14.33415064      14.33415064      -0.00007475       0.00007475       0.00007475
W        3.18590030       0.00000000      -0.00000000       0.00060706       0.00000000       0.00000000
W        4.77877344       1.59371472       1.59371472       0.00045262      -0.00019611      -0.00019611
W        3.18640625       0.00000000       3.18640625       0.00010723       0.00000000       0.00010723
W        4.77967598       1.59498771       4.77967598       0.00024236       0.00011616       0.00024236
W        3.18663811       0.00000000       6.37145077      -0.00024694       0.00000000      -0.00022879
W        4.77984397       1.59500167       7.96377516       0.00030026       0.00024059      -0.00000000
W        3.18663811       0.00000000       9.55609955      -0.00024694       0.00000000       0.00022879
W        4.77967598       1.59498771      11.14787434       0.00024236       0.00011616      -0.00024236
W        3.18640625       0.00000000      12.74114407       0.00010723       0.00000000      -0.00010723
W        4.77877344       1.59371472      14.33383561       0.00045262      -0.00019611       0.00019611
W        3.18640625       3.18640625       0.00000000       0.00010723       0.00010723       0.00000000
W        4.77967598       4.77967598       1.59498771       0.00024236       0.00024236       0.00011616
W        3.18802585       3.18802585       3.18802585       0.00007374       0.00007374       0.00007374
W        4.78775309       4.78775309       4.78775309       0.00017136       0.00017136       0.00017136
W        3.18865952       3.18865952       6.37160703      -0.00011902      -0.00011902      -0.00029424
W        4.78476986       4.78476986       7.96377516      -0.00003196      -0.00003196      -0.00000000
W        3.18865952       3.18865952       9.55594330      -0.00011902      -0.00011902       0.00029424
W        4.78775309       4.78775309      11.13979724       0.00017136       0.00017136      -0.00017136
W        3.18802585       3.18802585      12.73952447       0.00007374       0.00007374      -0.00007374
W        4.77967598       4.77967598      14.33256262       0.00024236       0.00024236      -0.00011616
W        3.18663811       6.37145077       0.00000000      -0.00024694      -0.00022879       0.00000000
W        4.77984397       7.96377516       1.59500167       0.00030026      -0.00000000       0.00024059
W        3.18865952       6.37160703       3.18865952      -0.00011902      -0.00029424      -0.00011902
W        4.78476986       7.96377516       4.78476986      -0.00003196      -0.00000000      -0.00003196
W        3.19064153       6.37313658       6.37313658      -0.00003240      -0.00024825      -0.00024825
W        4.80398469       7.96377516       7.96377516       0.00024944       0.00000000      -0.00000000
W        3.19064153       6.37313658       9.55441374      -0.00003240      -0.00024825       0.00024825
W        4.78476986       7.96377516      11.14278046      -0.00003196      -0.00000000       0.00003196
W        3.18865952       6.37160703      12.73889080      -0.00011902      -0.00029424       0.00011902
W        4.77984397       7.96377516      14.33254865       0.00030026      -0.00000000      -0.00024059
W        3.18663811       9.55609955       0.00000000      -0.00024694       0.00022879       0.00000000
W        4.77967598      11.14787434       1.59498771       0.00024236      -0.00024236       0.00011616
W        3.18865952       9.55594330       3.18865952      -0.00011902       0.00029424      -0.00011902
W        4.78775309      11.13979724       4.78775309       0.00017136      -0.00017136       0.00017136
W        3.19064153       9.55441374       6.37313658      -0.00003240       0.00024825      -0.00024825
W        4.78476986      11.14278046       7.96377516      -0.00003196       0.00003196      -0.00000000
W        3.19064153       9.55441374       9.55441374      -0.00003240       0.00024825       0.00024825
W        4.78775309      11.13979724      11.13979724       0.00017136      -0.00017136      -0.00017136
W        3.18865952       9.55594330      12.73889080      -0.00011902       0.00029424       0.00011902
W        4.77967598      11.14787434      14.33256262       0.00024236      -0.00024236      -0.00011616
W        3.18640625      12.74114407       0.00000000       0.00010723      -0.00010723      -0.00000000
W        4.77877344      14.33383561       1.59371472       0.00045262       0.00019611      -0.00019611
W        3.18802585      12.73952447       3.18802585       0.00007374      -0.00007374       0.00007374
W        4.77967598      14.33256262       4.77967598       0.00024236      -0.00011616       0.00024236
W        3.18865952      12.73889080       6.37160703      -0.00011902       0.00011902      -0.00029424
W        4.77984397      14.33254865       7.96377516       0.00030026      -0.00024059      -0.00000000
W        3.18865952      12.73889080       9.55594330      -0.00011902       0.00011902       0.00029424
W        4.77967598      14.33256262      11.14787434       0.00024236      -0.00011616      -0.00024236
W        3.18802585      12.73952447      12.73952447       0.00007374      -0.00007374      -0.00007374
W        4.77877344      14.33383561      14.33383561       0.00045262       0.00019611       0.00019611
W        6.37124882       0.00000000       0.00000000       0.00030566       0.00000000       0.00000000
W        7.96377516       1.59369673       1.59369673      -0.00000000      -0.00002721      -0.00002721
W        6.37145077       0.00000000       3.18663811      -0.00022879       0.00000000      -0.00024694
W        7.96377516       1.59500167       4.77984397      -0.00000000       0.00024059       0.00030026
W        6.37177011       0.00000000       6.37177011      -0.00014545      -0.00000000      -0.00014545
W        7.96377516       1.59530715       7.96377516      -0.00000000       0.00050204      -0.00000000
W        6.37177011       0.00000000       9.55578022      -0.00014545      -0.00000000       0.00014545
W        7.96377516       1.59500167      11.14770636       0.00000000       0.00024059      -0.00030026
W        6.37145077       0.00000000      12.74091221      -0.00022879       0.00000000       0.00024694
W        7.96377516       1.59369673      14.33385359      -0.00000000      -0.00002721       0.00002721
W        6.37145077       3.18663811       0.00000000      -0.00022879      -0.00024694       0.00000000
W        7.96377516       4.77984397       1.59500167      -0.00000000       0.00030026       0.00024059
W        6.37160703       3.18865952       3.18865952      -0.00029424      -0.00011902      -0.00011902
W        7.96377516       4.78476986       4.78476986      -0.00000000      -0.00003196      -0.00003196
W        6.37313658       3.19064153       6.37313658      -0.00024825      -0.00003240      -0.00024825
W        7.96377516       4.80398469       7.96377516      -0.00000000       0.00024944      -0.00000000
W        6.37313658       3.19064153       9.55441374      -0.00024825      -0.00003240       0.00024825
W        7.96377516       4.78476986      11.14278046      -0.00000000      -0.00003196       0.00003196
W        6.37160703       3.18865952      12.73889080      -0.00029424      -0.00011902       0.00011902
W        7.96377516       4.77984397      14.33254865      -0.00000000       0.00030026      -0.00024059
W        6.37177011       6.37177011       0.00000000      -0.00014545      -0.00014545      -0.00000000
W        7.96377516       7.96377516       1.59530715      -0.00000000      -0.00000000       0.00050204
W        6.37313658       6.37313658       3.19064153      -0.00024825      -0.00024825      -0.00003240
W        7.96377516       7.96377516       4.80398469      -0.00000000      -0.00000000       0.00024944
W        6.39733578       6.39733578       6.39733578      -0.00002303      -0.00002303      -0.00002303
W        6.39733578       6.39733578       9.53021454      -0.00002303      -0.00002303       0.00002303
W        7.96377516       7.96377516      11.12356563      -0.00000000      -0.00000000      -0.00024944
W        6.37313658       6.37313658      12.73690879      -0.00024825      -0.00024825       0.00003240
W        7.96377516       7.96377516      14.33224317      -0.00000000      -0.00000000      -0.00050204
W        6.37177011       9.55578022       0.00000000      -0.00014545       0.00014545      -0.00000000
W        7.96377516      11.14770636       1.59500167      -0.00000000      -0.00030026       0.00024059
W        6.37313658       9.55441374       3.19064153      -0.00024825       0.00024825      -0.00003240
W        7.96377516      11.14278046       4.78476986      -0.00000000       0.00003196      -0.00003196
W        6.39733578       9.53021454       6.39733578      -0.00002303       0.00002303      -0.00002303
W        7.96377516      11.12356563       7.96377516      -0.00000000      -0.00024944      -0.00000000
W        6.39733578       9.53021454       9.53021454      -0.00002303       0.00002303       0.00002303
W        7.96377516      11.14278046      11.14278046      -0.00000000       0.00003196       0.00003196
W        6.37313658       9.55441374      12.73690879      -0.00024825       0.00024825       0.00003240
W        7.96377516      11.14770636      14.33254865      -0.00000000      -0.00030026      -0.00024059
W        6.37145077      12.74091221       0.00000000      -0.00022879       0.00024694       0.00000000
W        7.96377516      14.33385359       1.59369673      -0.00000000       0.00002721      -0.00002721
W        6.37160703      12.73889080       3.18865952      -0.00029424       0.00011902      -0.00011902
W        7.96377516      14.33254865       4.77984397      -0.00000000      -0.00024059       0.00030026
W        6.37313658      12.73690879       6.37313658      -0.00024825       0.00003240      -0.00024825
W        7.96377516      14.33224317       7.96377516      -0.00000000      -0.00050204      -0.00000000
W        6.37313658      12.73690879       9.55441374      -0.00024825       0.00003240       0.00024825
W        7.96377516      14.33254865      11.14770636      -0.00000000      -0.00024059      -0.00030026
W        6.37160703      12.73889080      12.73889080      -0.00029424       0.00011902       0.00011902
W        7.96377516      14.33385359      14.33385359      -0.00000000       0.00002721       0.00002721
W        9.55630151       0.00000000       0.00000000      -0.00030566       0.00000000       0.00000000
W       11.14877688       1.59371472       1.59371472      -0.00045262      -0.00019611      -0.00019611
W        9.55609955       0.00000000       3.18663811       0.00022879       0.00000000      -0.00024694
W       11.14787434       1.59498771       4.77967598      -0.00024236       0.00011616       0.00024236
W        9.55578022       0.00000000       6.37177011       0.00014545      -0.00000000      -0.00014545
W       11.14770636       1.59500167       7.96377516      -0.00030026       0.00024059      -0.00000000
W        9.55578022       0.00000000       9.55578022       0.00014545      -0.00000000       0.00014545
W       11.14787434       1.59498771      11.14787434      -0.00024236       0.00011616      -0.00024236
W        9.55609955       0.00000000      12.74091221       0.00022879       0.00000000       0.00024694
W       11.14877688       1.59371472      14.33383561      -0.00045262      -0.00019611       0.00019611
W        9.55609955       3.18663811       0.00000000       0.00022879      -0.00024694       0.00000000
W       11.14787434       4.77967598       1.59498771      -0.00024236       0.00024236       0.00011616
W        9.55594330       3.18865952       3.18865952       0.00029424      -0.00011902      -0.00011902
W       11.13979724       4.78775309       4.78775309      -0.00017136       0.00017136       0.00017136
W        9.55441374       3.19064153       6.37313658       0.00024825      -0.00003240      -0.00024825
W       11.14278046       4.78476986       7.96377516       0.00003196      -0.00003196      -0.00000000
W        9.55441374       3.19064153       9.55441374       0.00024825      -0.00003240       0.00024825
W       11.13979724       4.78775309      11.13979724      -0.00017136       0.00017136      -0.00017136
W        9.55594330       3.18865952      12.73889080       0.00029424      -0.00011902       0.00011902
W       11.14787434       4.77967598      14.33256262      -0.00024236       0.00024236      -0.00011616
W        9.55578022       6.37177011       0.00000000       0.00014545      -0.00014545      -0.00000000
W       11.14770636       7.96377516       1.59500167      -0.00030026       0.00000000       0.00024059
W        9.55441374       6.37313658       3.19064153       0.00024825      -0.00024825      -0.00003240
W       11.14278046       7.96377516       4.78476986       0.00003196      -0.00000000      -0.00003196
W        9.53021454       6.39733578       6.39733578       0.00002303      -0.00002303      -0.00002303
W       11.12356563       7.96377516       7.96377516      -0.00024944      -0.00000000      -0.00000000
W        9.53021454       6.39733578       9.53021454       0.00002303      -0.00002303       0.00002303
W       11.14278046       7.96377516      11.14278046       0.00003196      -0.00000000       0.00003196
W        9.55441374       6.37313658      12.73690879       0.00024825      -0.00024825       0.00003240
W       11.14770636       7.96377516      14.33254865      -0.00030026      -0.00000000      -0.00024059
W        9.55578022       9.55578022       0.00000000       0.00014545       0.00014545      -0.00000000
W       11.14787434      11.14787434       1.59498771      -0.00024236      -0.00024236       0.00011616
W        9.55441374       9.55441374       3.19064153       0.00024825       0.00024825      -0.00003240
W       11.13979724      11.13979724       4.78775309      -0.00017136      -0.00017136       0.00017136
W        9.53021454       9.53021454       6.39733578       0.00002303       0.00002303      -0.00002303
W       11.14278046      11.14278046       7.96377516       0.00003196       0.00003196       0.00000000
W        9.53021454       9.53021454       9.53021454       0.00002303       0.00002303       0.00002303
W       11.13979724      11.13979724      11.13979724      -0.00017136      -0.00017136      -0.00017136
W        9.55441374       9.55441374      12.73690879       0.00024825       0.00024825       0.00003240
W       11.14787434      11.14787434      14.33256262      -0.00024236      -0.00024236      -0.00011616
W        9.55609955      12.74091221       0.00000000       0.00022879       0.00024694       0.00000000
W       11.14877688      14.33383561       1.59371472      -0.00045262       0.00019611      -0.00019611
W        9.55594330      12.73889080       3.18865952       0.00029424       0.00011902      -0.00011902
W       11.14787434      14.33256262       4.77967598      -0.00024236      -0.00011616       0.00024236
W        9.55441374      12.73690879       6.37313658       0.00024825       0.00003240      -0.00024825
W       11.14770636      14.33254865       7.96377516      -0.00030026      -0.00024059      -0.00000000
W        9.55441374      12.73690879       9.55441374       0.00024825       0.00003240       0.00024825
W       11.14787434      14.33256262      11.14787434      -0.00024236      -0.00011616      -0.00024236
W        9.55594330      12.73889080      12.73889080       0.00029424       0.00011902       0.00011902
W       11.14877688      14.33383561      14.33383561      -0.00045262       0.00019611       0.00019611
W       12.74165002      -0.00000000      -0.00000000      -0.00060706       0.00000000       0.00000000
W       14.33415064       1.59339968       1.59339968       0.00007475      -0.00007475      -0.00007475
W       12.74114407       0.00000000       3.18640625      -0.00010723       0.00000000       0.00010723
W       14.33383561       1.59371472       4.77877344       0.00019611      -0.00019611       0.00045262
W       12.74091221       0.00000000       6.37145077       0.00024694       0.00000000      -0.00022879
W       14.33385359       1.59369673       7.96377516       0.00002721      -0.00002721      -0.00000000
W       12.74091221       0.00000000       9.55609955       0.00024694       0.00000000       0.00022879
W       14.33383561       1.59371472      11.14877688       0.00019611      -0.00019611      -0.00045262
W       12.74114407       0.00000000      12.74114407      -0.00010723       0.00000000      -0.00010723
W       14.33415064       1.59339968      14.33415064       0.00007475      -0.00007475       0.00007475
W       12.74114407       3.18640625       0.00000000      -0.00010723       0.00010723       0.00000000
W       14.33383561       4.77877344       1.59371472       0.00019611       0.00045262      -0.00019611
W       12.73952447       3.18802585       3.18802585      -0.00007374       0.00007374       0.00007374
W       14.33256262       4.77967598       4.77967598      -0.00011616       0.00024236       0.00024236
W       12.73889080       3.18865952       6.37160703       0.00011902      -0.00011902      -0.00029424
W       14.33254865       4.77984397       7.96377516      -0.00024059       0.00030026      -0.00000000
W       12.73889080       3.18865952       9.55594330       0.00011902      -0.00011902       0.00029424
W       14.33256262       4.77967598      11.14787434      -0.00011616       0.00024236      -0.00024236
W       12.73952447       3.18802585      12.73952447      -0.00007374       0.00007374      -0.00007374
W       14.33383561       4.77877344      14.33383561       0.00019611       0.00045262       0.00019611
W       12.74091221       6.37145077       0.00000000       0.00024694      -0.00022879       0.00000000
W       14.33385359       7.96377516       1.59369673       0.00002721      -0.00000000      -0.00002721
W       12.73889080       6.37160703       3.18865952       0.00011902      -0.00029424      -0.00011902
W       14.33254865       7.96377516       4.77984397      -0.00024059      -0.00000000       0.00030026
W       12.73690879       6.37313658       6.37313658       0.00003240      -0.00024825      -0.00024825
W       14.33224317       7.96377516       7.96377516      -0.00050204      -0.00000000      -0.00000000
W       12.73690879       6.37313658       9.55441374       0.00003240      -0.00024825       0.00024825
W       14.33254865       7.96377516      11.14770636      -0.00024059      -0.00000000      -0.00030026
W       12.73889080       6.37160703      12.73889080       0.00011902      -0.00029424       0.00011902
W       14.33385359       7.96377516      14.33385359       0.00002721      -0.00000000       0.00002721
W       12.74091221       9.55609955       0.00000000       0.00024694       0.00022879       0.00000000
W       14.33383561      11.14877688       1.59371472       0.00019611      -0.00045262      -0.00019611
W       12.73889080       9.55594330       3.18865952       0.00011902       0.00029424      -0.00011902
W       14.33256262      11.14787434       4.77967598      -0.00011616      -0.00024236       0.00024236
W       12.73690879       9.55441374       6.37313658       0.00003240       0.00024825      -0.00024825
W       14.33254865      11.14770636       7.96377516      -0.00024059      -0.00030026      -0.00000000
W       12.73690879       9.55441374       9.55441374       0.00003240       0.00024825       0.00024825
W       14.33256262      11.14787434      11.14787434      -0.00011616      -0.00024236      -0.00024236
W       12.73889080       9.55594330      12.73889080       0.00011902       0.00029424       0.00011902
W       14.33383561      11.14877688      14.33383561       0.00019611      -0.00045262       0.00019611
W       12.74114407      12.74114407       0.00000000      -0.00010723      -0.00010723       0.00000000
W       14.33415064      14.33415064       1.59339968       0.00007475       0.00007475      -0.00007475
W       12.73952447      12.73952447       3.18802585      -0.00007374      -0.00007374       0.00007374
W       14.33383561      14.33383561       4.77877344       0.00019611       0.00019611       0.00045262
W       12.73889080      12.73889080       6.37160703       0.00011902       0.00011902      -0.00029424
W       14.33385359      14.33385359       7.96377516       0.00002721       0.00002721      -0.00000000
W       12.73889080      12.73889080       9.55594330       0.00011902       0.00011902       0.00029424
W       14.33383561      14.33383561      11.14877688       0.00019611       0.00019611      -0.00045262
W       12.73952447      12.73952447      12.73952447      -0.00007374      -0.00007374      -0.00007374
W       14.33415064      14.33415064      14.33415064       0.00007475       0.00007475       0.00007475
249
Lattice="15.927550324120363 0.0 0.0 0.0 15.927550324120363 0.0 0.0 0.0 15.927550324120363" Properties=species:S:1:pos:R:3:forces:R:3 energy=-2376.6616917953565 pbc="T T T"
W        0.00135388       0.00135388       0.00135388       0.00281061       0.00281061       0.00281061
W        1.59745281       1.59745281       1.59745281       0.00389969       0.00389969       0.00389969
W        0.00303253       0.00303253       3.18645390       0.00507120       0.00507120       0.00538860
W        1.60110424       1.60110424       4.78093966       0.00375550       0.00375550       0.00770486
W        0.00338680       0.00338680       6.37094803       0.00440987       0.00440987       0.00476454
W        1.59910129       1.59910129       7.96421838       0.00133922       0.00133922       0.00399676
W        0.00139127       0.00139127       9.55627354       0.00299750       0.00299750       0.00261078
W        1.59495778       1.59495778      11.14981525       0.00188530       0.00188530       0.00689863
W        0.00053951       0.00053951      12.74259346       0.00176436       0.00176436       0.00192684
W        1.59431298       1.59431298      14.33723592       0.00500629       0.00500629       0.00445282
W        0.00303253       3.18645390       0.00303253       0.00507120       0.00538860       0.00507120
W        1.60110424       4.78093966       1.60110424       0.00375550       0.00770486       0.00375550
W        0.00792543       3.18949259       3.18949259       0.00269343       0.00598637       0.00598637
W        1.61131358       4.78792558       4.78792558      -0.00004084       0.00219888       0.00219888
W        0.00960582       3.19045540       6.37272732      -0.00006683       0.00419191       0.00565418
W        1.60489592       4.78556833       7.96709759       0.00374745       0.00144198       0.00851399
W        0.00420051       3.18736928       9.55690289       0.00102220       0.00342463       0.00431024
W        1.59567017       4.77903057      11.15242799       0.00879665       0.00608401       0.00091358
W        0.00121384       3.18592112      12.74340580       0.00379943       0.00402479       0.00375910
W        1.59521876       4.77888216      14.33954038       0.00580175       0.00498185       0.00233653
W        0.00338680       6.37094803       0.00338680       0.00440987       0.00476454       0.00440987
W        1.59910129       7.96421838       1.59910129       0.00133922       0.00399676       0.00133922
W        0.00960582       6.37272732       3.19045540      -0.00006683       0.00565418       0.00419191
W        1.60489592       7.96709759       4.78556833       0.00374745       0.00851399       0.00144198
W        0.01165901       6.37474295       6.37474295      -0.00353912       0.00443076       0.00443076
W        1.59308287       7.96886019       7.96886019       0.04430852       0.00072132       0.00072132
W        0.00180854       6.37198725       9.55832635       0.00745479       0.00360181       0.00267878
W        1.59083629       7.96395461      11.15325029       0.01620141       0.00603822      -0.00237558
W       -0.00036373       6.37084432      12.74411762       0.00697962       0.00209274       0.00191821
W        1.59351708       7.96385330      14.33882481       0.00543084       0.00182301       0.00065276
W        0.00139127       9.55627354       0.00139127       0.00299750       0.00261078       0.00299750
W        1.59495778      11.14981525       1.59495778       0.00188530       0.00689863       0.00188530
W        0.00420051       9.55690289       3.18736928       0.00102220       0.00431024       0.00342463