249
Lattice="15.927550324376707 0.0 0.0 0.0 15.927550324376707 0.0 0.0 0.0 15.927550324376707" Properties=species:S:1:pos:R:3:forces:R:3 energy=-2376.531447988812 pbc="T T T"
W       -0.00000000      -0.00000000      -0.00000000      -0.00000000       0.00000000      -0.00000000
W        1.59324060       1.59324060       1.59324060      -0.00001945      -0.00001945      -0.00001945
W       -0.00000000      -0.00000000       3.18588670      -0.00000000       0.00000000       0.00052249
W        1.59348690       1.59348690       4.77878345      -0.00014065      -0.00014065       0.00033763
W       -0.00000000      -0.00000000       6.37125667      -0.00000000       0.00000000       0.00023089
W        1.59358987       1.59358987       7.96377516      -0.00015356      -0.00015356       0.00000000
W       -0.00000000      -0.00000000       9.55629365      -0.00000000      -0.00000000      -0.00023089
W        1.59348690       1.59348690      11.14876688      -0.00014065      -0.00014065      -0.00033763
W       -0.00000000      -0.00000000      12.74166363       0.00000000       0.00000000      -0.00052249
W        1.59324060       1.59324060      14.33430972      -0.00001945      -0.00001945       0.00001945
W       -0.00000000       3.18588670      -0.00000000       0.00000000       0.00052249      -0.00000000
W        1.59348690       4.77878345       1.59348690      -0.00014065       0.00033763      -0.00014065
W       -0.00000000       3.18613873       3.18613873      -0.00000000       0.00013301       0.00013301
W        1.59423297       4.77934984       4.77934984      -0.00010505       0.00015225       0.00015225
W       -0.00000000       3.18638302       6.37138518      -0.00000000      -0.00020962      -0.00009866
W        1.59469677       4.77943141       7.96377516      -0.00010768       0.00010957       0.00000000
W       -0.00000000       3.18638302       9.55616515      -0.00000000      -0.00020962       0.00009866
W        1.59423297       4.77934984      11.14820048      -0.00010505       0.00015225      -0.00015225
W       -0.00000000       3.18613873      12.74141159      -0.00000000       0.00013301      -0.00013301
W        1.59348690       4.77878345      14.33406343      -0.00014065       0.00033763       0.00014065
W       -0.00000000       6.37125667      -0.00000000       0.00000000       0.00023089       0.00000000
W        1.59358987       7.96377516       1.59358987      -0.00015356       0.00000000      -0.00015356
W       -0.00000000       6.37138518       3.18638302      -0.00000000      -0.00009866      -0.00020962
W        1.59469677       7.96377516       4.77943141      -0.00010768       0.00000000       0.00010957
W       -0.00000000       6.37180903       6.37180903      -0.00000000      -0.00025139      -0.00025139
W        1.59743308       7.96377516       7.96377516       0.00018738      -0.00000000       0.00000000
W       -0.00000000       6.37180903       9.55574129       0.00000000      -0.00025139       0.00025139
W        1.59469677       7.96377516      11.14811892      -0.00010768       0.00000000      -0.00010957
W       -0.00000000       6.37138518      12.74116730      -0.00000000      -0.00009866       0.00020962
W        1.59358987       7.96377516      14.33396045      -0.00015356       0.00000000       0.00015356
W       -0.00000000       9.55629365      -0.00000000       0.00000000      -0.00023089       0.00000000
W        1.59348690      11.14876688       1.59348690      -0.00014065      -0.00033763      -0.00014065
W       -0.00000000       9.55616515       3.18638302       0.00000000       0.00009866      -0.00020962
W        1.59423297      11.14820048       4.77934984      -0.00010505      -0.00015225       0.00015225
W       -0.00000000       9.55574129       6.37180903       0.00000000       0.00025139      -0.00025139
W        1.59469677      11.14811892       7.96377516      -0.00010768      -0.00010957       0.00000000
W       -0.00000000       9.55574129       9.55574129       0.00000000       0.00025139       0.00025139
W        1.59423297      11.14820048      11.14820048      -0.00010505      -0.00015225      -0.00015225
W       -0.00000000       9.55616515      12.74116730       0.00000000       0.00009866       0.00020962
W        1.59348690      11.14876688      14.33406343      -0.00014065      -0.00033763       0.00014065
W       -0.00000000      12.74166363      -0.00000000       0.00000000      -0.00052249       0.00000000
W        1.59324060      14.33430972       1.59324060      -0.00001945       0.00001945      -0.00001945
W       -0.00000000      12.74141159       3.18613873      -0.00000000      -0.00013301       0.00013301
W        1.59348690      14.33406343       4.77878345      -0.00014065       0.00014065       0.00033763
W       -0.00000000      12.74116730       6.37138518       0.00000000       0.00020962      -0.00009866
W        1.59358987      14.33396045       7.96377516      -0.00015356       0.00015356       0.00000000
W       -0.00000000      12.74116730       9.55616515      -0.00000000       0.00020962       0.00009866
W        1.59348690      14.33406343      11.14876688      -0.00014065       0.00014065      -0.00033763
W       -0.00000000      12.74141159      12.74141159       0.00000000      -0.00013301      -0.00013301
W        1.59324060      14.33430972      14.33430972      -0.00001945       0.00001945       0.00001945
W        3.18588670      -0.00000000      -0.00000000       0.00052249       0.00000000       0.00000000
W        4.77878345       1.59348690       1.59348690       0.00033763      -0.00014065      -0.00014065
W        3.18613873      -0.00000000       3.18613873       0.00013301      -0.00000000       0.00013301
W        4.77934984       1.59423297       4.77934984       0.00015225      -0.00010505       0.00015225
W        3.18638302      -0.00000000       6.37138518      -0.00020962      -0.00000000      -0.00009866
W        4.77943141       1.59469677       7.96377516       0.00010957      -0.00010768      -0.00000000
W        3.18638302      -0.00000000       9.55616515      -0.00020962      -0.00000000       0.00009866
W        4.77934984       1.59423297      11.14820048       0.00015225      -0.00010505      -0.00015225
W        3.18613873      -0.00000000      12.74141159       0.00013301      -0.00000000      -0.00013301
W        4.77878345       1.59348690      14.33406343       0.00033763      -0.00014065       0.00014065
W        3.18613873       3.18613873      -0.00000000       0.00013301       0.00013301      -0.00000000
W        4.77934984       4.77934984       1.59423297       0.00015225       0.00015225      -0.00010505
W        3.18740539       3.18740539       3.18740539       0.00012193       0.00012193       0.00012193
W        4.78413535       4.78413535       4.78413535       0.00002026       0.00002026       0.00002026
W        3.18817924       3.18817924       6.37163759      -0.00006638      -0.00006638      -0.00019622
W        4.78706295       4.78706295       7.96377516      -0.00013324      -0.00013324       0.00000000
W        3.18817924       3.18817924       9.55591273      -0.00006638      -0.00006638       0.00019622
W        4.78413535       4.78413535      11.14341497       0.00002026       0.00002026      -0.00002026
W        3.18740539       3.18740539      12.74014493       0.00012193       0.00012193      -0.00012193
W        4.77934984       4.77934984      14.33331735       0.00015225       0.00015225       0.00010505
W        3.18638302       6.37138518      -0.00000000      -0.00020962      -0.00009866      -0.00000000
W        4.77943141       7.96377516       1.59469677       0.00010957      -0.00000000      -0.00010768
W        3.18817924       6.37163759       3.18817924      -0.00006638      -0.00019622      -0.00006638
W        4.78706295       7.96377516       4.78706295      -0.00013324       0.00000000      -0.00013324
W        3.18783204       6.37268265       6.37268265      -0.00010113      -0.00013992      -0.00013992
W        4.80719996       7.96377516       7.96377516      -0.00018541       0.00000000       0.00000000
W        3.18783204       6.37268265       9.55486768      -0.00010113      -0.00013992       0.00013992
W        4.78706295       7.96377516      11.14048737      -0.00013324       0.00000000       0.00013324
W        3.18817924       6.37163759      12.73937109      -0.00006638      -0.00019622       0.00006638
W        4.77943141       7.96377516      14.33285356       0.00010957       0.00000000       0.00010768
W        3.18638302       9.55616515      -0.00000000      -0.00020962       0.00009866      -0.00000000
W        4.77934984      11.14820048       1.59423297       0.00015225      -0.00015225      -0.00010505
W        3.18817924       9.55591273       3.18817924      -0.00006638       0.00019622      -0.00006638
W        4.78413535      11.14341497       4.78413535       0.00002026      -0.00002026       0.00002026
W        3.18783204       9.55486768       6.37268265      -0.00010113       0.00013992      -0.00013992
W        4.78706295      11.14048737       7.96377516      -0.00013324       0.00013324       0.00000000
W        3.18783204       9.55486768       9.55486768      -0.00010113       0.00013992       0.00013992
W        4.78413535      11.14341497      11.14341497       0.00002026      -0.00002026      -0.00002026
W        3.18817924       9.55591273      12.73937109      -0.00006638       0.00019622       0.00006638
W        4.77934984      11.14820048      14.33331735       0.00015225      -0.00015225       0.00010505
W        3.18613873      12.74141159      -0.00000000       0.00013301      -0.00013301       0.00000000
W        4.77878345      14.33406343       1.59348690       0.00033763       0.00014065      -0.00014065
W        3.18740539      12.74014493       3.18740539       0.00012193      -0.00012193       0.00012193
W        4.77934984      14.33331735       4.77934984       0.00015225       0.00010505       0.00015225
W        3.18817924      12.73937109       6.37163759      -0.00006638       0.00006638      -0.00019622
W        4.77943141      14.33285356       7.96377516       0.00010957       0.00010768      -0.00000000
W        3.18817924      12.73937109       9.55591273      -0.00006638       0.00006638       0.00019622
W        4.77934984      14.33331735      11.14820048       0.00015225       0.00010505      -0.00015225
W        3.18740539      12.74014493      12.74014493       0.00012193      -0.00012193      -0.00012193
W        4.77878345      14.33406343      14.33406343       0.00033763       0.00014065       0.00014065
W        6.37125667      -0.00000000      -0.00000000       0.00023089      -0.00000000       0.00000000
W        7.96377516       1.59358987       1.59358987       0.00000000      -0.00015356      -0.00015356
W        6.37138518      -0.00000000       3.18638302      -0.00009866      -0.00000000      -0.00020962
W        7.96377516       1.59469677       4.77943141       0.00000000      -0.00010768       0.00010957
W        6.37180903      -0.00000000       6.37180903      -0.00025139       0.00000000      -0.00025139
W        7.96377516       1.59743308       7.96377516       0.00000000       0.00018738       0.00000000
W        6.37180903      -0.00000000       9.55574129      -0.00025139       0.00000000       0.00025139
W        7.96377516       1.59469677      11.14811892      -0.00000000      -0.00010768      -0.00010957
W        6.37138518      -0.00000000      12.74116730      -0.00009866      -0.00000000       0.00020962
W        7.96377516       1.59358987      14.33396045       0.00000000      -0.00015356       0.00015356
W        6.37138518       3.18638302      -0.00000000      -0.00009866      -0.00020962       0.00000000
W        7.96377516       4.77943141       1.59469677      -0.00000000       0.00010957      -0.00010768
W        6.37163759       3.18817924       3.18817924      -0.00019622      -0.00006638      -0.00006638
W        7.96377516       4.78706295       4.78706295      -0.00000000      -0.00013324      -0.00013324
W        6.37268265       3.18783204       6.37268265      -0.00013992      -0.00010113      -0.00013992
W        7.96377516       4.80719996       7.96377516       0.00000000      -0.00018541       0.00000000
W        6.37268265       3.18783204       9.55486768      -0.00013992      -0.00010113       0.00013992
W        7.96377516       4.78706295      11.14048737       0.00000000      -0.00013324       0.00013324
W        6.37163759       3.18817924      12.73937109      -0.00019622      -0.00006638       0.00006638
W        7.96377516       4.77943141      14.33285356      -0.00000000       0.00010957       0.00010768
W        6.37180903       6.37180903      -0.00000000      -0.00025139      -0.00025139       0.00000000
W        7.96377516       7.96377516       1.59743308      -0.00000000      -0.00000000       0.00018738
W        6.37268265       6.37268265       3.18783204      -0.00013992      -0.00013992      -0.00010113
W        7.96377516       7.96377516       4.80719996       0.00000000       0.00000000      -0.00018541
W        6.39777534       6.39777534       6.39777534      -0.00042964      -0.00042964      -0.00042964
W        6.39777534       6.39777534       9.52977499      -0.00042964      -0.00042964       0.00042964
W        7.96377516       7.96377516      11.12035036       0.00000000       0.00000000       0.00018541
W        6.37268265       6.37268265      12.73971829      -0.00013992      -0.00013992       0.00010113
W        7.96377516       7.96377516      14.33011725      -0.00000000      -0.00000000      -0.00018738
W        6.37180903       9.55574129      -0.00000000      -0.00025139       0.00025139       0.00000000
W        7.96377516      11.14811892       1.59469677       0.00000000      -0.00010957      -0.00010768
W        6.37268265       9.55486768       3.18783204      -0.00013992       0.00013992      -0.00010113
W        7.96377516      11.14048737       4.78706295       0.00000000       0.00013324      -0.00013324
W        6.39777534       9.52977499       6.39777534      -0.00042964       0.00042964      -0.00042964
W        7.96377516      11.12035036       7.96377516       0.00000000       0.00018541       0.00000000
W        6.39777534       9.52977499       9.52977499      -0.00042964       0.00042964       0.00042964
W        7.96377516      11.14048737      11.14048737       0.00000000       0.00013324       0.00013324
W        6.37268265       9.55486768      12.73971829      -0.00013992       0.00013992       0.00010113
W        7.96377516      11.14811892      14.33285356       0.00000000      -0.00010957       0.00010768
W        6.37138518      12.74116730      -0.00000000      -0.00009866       0.00020962      -0.00000000
W        7.96377516      14.33396045       1.59358987       0.00000000       0.00015356      -0.00015356
W        6.37163759      12.73937109       3.18817924      -0.00019622       0.00006638      -0.00006638
W        7.96377516      14.33285356       4.77943141       0.00000000       0.00010768       0.00010957
W        6.37268265      12.73971829       6.37268265      -0.00013992       0.00010113      -0.00013992
W        7.96377516      14.33011725       7.96377516      -0.00000000      -0.00018738      -0.00000000
W        6.37268265      12.73971829       9.55486768      -0.00013992       0.00010113       0.00013992
W        7.96377516      14.33285356      11.14811892       0.00000000       0.00010768      -0.00010957
W        6.37163759      12.73937109      12.73937109      -0.00019622       0.00006638       0.00006638
W        7.96377516      14.33396045      14.33396045       0.00000000       0.00015356       0.00015356
W        9.55629365      -0.00000000      -0.00000000      -0.00023089       0.00000000       0.00000000
W       11.14876688       1.59348690       1.59348690      -0.00033763      -0.00014065      -0.00014065
W        9.55616515      -0.00000000       3.18638302       0.00009866      -0.00000000      -0.00020962
W       11.14820048       1.59423297       4.77934984      -0.00015225      -0.00010505       0.00015225
W        9.55574129      -0.00000000       6.37180903       0.00025139       0.00000000      -0.00025139
W       11.14811892       1.59469677       7.96377516      -0.00010957      -0.00010768      -0.00000000
W        9.55574129      -0.00000000       9.55574129       0.00025139       0.00000000       0.00025139
W       11.14820048       1.59423297      11.14820048      -0.00015225      -0.00010505      -0.00015225
W        9.55616515      -0.00000000      12.74116730       0.00009866      -0.00000000       0.00020962
W       11.14876688       1.59348690      14.33406343      -0.00033763      -0.00014065       0.00014065
W        9.55616515       3.18638302      -0.00000000       0.00009866      -0.00020962      -0.00000000
W       11.14820048       4.77934984       1.59423297      -0.00015225       0.00015225      -0.00010505
W        9.55591273       3.18817924       3.18817924       0.00019622      -0.00006638      -0.00006638
W       11.14341497       4.78413535       4.78413535      -0.00002026       0.00002026       0.00002026
W        9.55486768       3.18783204       6.37268265       0.00013992      -0.00010113      -0.00013992
W       11.14048737       4.78706295       7.96377516       0.00013324      -0.00013324       0.00000000
W        9.55486768       3.18783204       9.55486768       0.00013992      -0.00010113       0.00013992
W       11.14341497       4.78413535      11.14341497      -0.00002026       0.00002026      -0.00002026
W        9.55591273       3.18817924      12.73937109       0.00019622      -0.00006638       0.00006638
W       11.14820048       4.77934984      14.33331735      -0.00015225       0.00015225       0.00010505
W        9.55574129       6.37180903      -0.00000000       0.00025139      -0.00025139       0.00000000
W       11.14811892       7.96377516       1.59469677      -0.00010957       0.00000000      -0.00010768
W        9.55486768       6.37268265       3.18783204       0.00013992      -0.00013992      -0.00010113
W       11.14048737       7.96377516       4.78706295       0.00013324       0.00000000      -0.00013324
W        9.52977499       6.39777534       6.39777534       0.00042964      -0.00042964      -0.00042964
W       11.12035036       7.96377516       7.96377516       0.00018541       0.00000000       0.00000000
W        9.52977499       6.39777534       9.52977499       0.00042964      -0.00042964       0.00042964
W       11.14048737       7.96377516      11.14048737       0.00013324       0.00000000       0.00013324
W        9.55486768       6.37268265      12.73971829       0.00013992      -0.00013992       0.00010113
W       11.14811892       7.96377516      14.33285356      -0.00010957      -0.00000000       0.00010768
W        9.55574129       9.55574129      -0.00000000       0.00025139       0.00025139       0.00000000
W       11.14820048      11.14820048       1.59423297      -0.00015225      -0.00015225      -0.00010505
W        9.55486768       9.55486768       3.18783204       0.00013992       0.00013992      -0.00010113
W       11.14341497      11.14341497       4.78413535      -0.00002026      -0.00002026       0.00002026
W        9.52977499       9.52977499       6.39777534       0.00042964       0.00042964      -0.00042964
W       11.14048737      11.14048737       7.96377516       0.00013324       0.00013324       0.00000000
W        9.52977499       9.52977499       9.52977499       0.00042964       0.00042964       0.00042964
W       11.14341497      11.14341497      11.14341497      -0.00002026      -0.00002026      -0.00002026
W        9.55486768       9.55486768      12.73971829       0.00013992       0.00013992       0.00010113
W       11.14820048      11.14820048      14.33331735      -0.00015225      -0.00015225       0.00010505
W        9.55616515      12.74116730      -0.00000000       0.00009866       0.00020962       0.00000000
W       11.14876688      14.33406343       1.59348690      -0.00033763       0.00014065      -0.00014065
W        9.55591273      12.73937109       3.18817924       0.00019622       0.00006638      -0.00006638
W       11.14820048      14.33331735       4.77934984      -0.00015225       0.00010505       0.00015225
W        9.55486768      12.73971829       6.37268265       0.00013992       0.00010113      -0.00013992
W       11.14811892      14.33285356       7.96377516      -0.00010957       0.00010768       0.00000000
W        9.55486768      12.73971829       9.55486768       0.00013992       0.00010113       0.00013992
W       11.14820048      14.33331735      11.14820048      -0.00015225       0.00010505      -0.00015225
W        9.55591273      12.73937109      12.73937109       0.00019622       0.00006638       0.00006638
W       11.14876688      14.33406343      14.33406343      -0.00033763       0.00014065       0.00014065
W       12.74166363      -0.00000000      -0.00000000      -0.00052249       0.00000000       0.00000000
W       14.33430972       1.59324060       1.59324060       0.00001945      -0.00001945      -0.00001945
W       12.74141159      -0.00000000       3.18613873      -0.00013301      -0.00000000       0.00013301
W       14.33406343       1.59348690       4.77878345       0.00014065      -0.00014065       0.00033763
W       12.74116730      -0.00000000       6.37138518       0.00020962      -0.00000000      -0.00009866
W       14.33396045       1.59358987       7.96377516       0.00015356      -0.00015356       0.00000000
W       12.74116730      -0.00000000       9.55616515       0.00020962       0.00000000       0.00009866
W       14.33406343       1.59348690      11.14876688       0.00014065      -0.00014065      -0.00033763
W       12.74141159      -0.00000000      12.74141159      -0.00013301       0.00000000      -0.00013301
W       14.33430972       1.59324060      14.33430972       0.00001945      -0.00001945       0.00001945
W       12.74141159       3.18613873      -0.00000000      -0.00013301       0.00013301      -0.00000000
W       14.33406343       4.77878345       1.59348690       0.00014065       0.00033763      -0.00014065
W       12.74014493       3.18740539       3.18740539      -0.00012193       0.00012193       0.00012193
W       14.33331735       4.77934984       4.77934984       0.00010505       0.00015225       0.00015225
W       12.73937109       3.18817924       6.37163759       0.00006638      -0.00006638      -0.00019622
W       14.33285356       4.77943141       7.96377516       0.00010768       0.00010957      -0.00000000
W       12.73937109       3.18817924       9.55591273       0.00006638      -0.00006638       0.00019622
W       14.33331735       4.77934984      11.14820048       0.00010505       0.00015225      -0.00015225
W       12.74014493       3.18740539      12.74014493      -0.00012193       0.00012193      -0.00012193
W       14.33406343       4.77878345      14.33406343       0.00014065       0.00033763       0.00014065
W       12.74116730       6.37138518      -0.00000000       0.00020962      -0.00009866      -0.00000000
W       14.33396045       7.96377516       1.59358987       0.00015356       0.00000000      -0.00015356
W       12.73937109       6.37163759       3.18817924       0.00006638      -0.00019622      -0.00006638
W       14.33285356       7.96377516       4.77943141       0.00010768      -0.00000000       0.00010957
W       12.73971829       6.37268265       6.37268265       0.00010113      -0.00013992      -0.00013992
W       14.33011725       7.96377516       7.96377516      -0.00018738      -0.00000000       0.00000000
W       12.73971829       6.37268265       9.55486768       0.00010113      -0.00013992       0.00013992
W       14.33285356       7.96377516      11.14811892       0.00010768      -0.00000000      -0.00010957
W       12.73937109       6.37163759      12.73937109       0.00006638      -0.00019622       0.00006638
W       14.33396045       7.96377516      14.33396045       0.00015356       0.00000000       0.00015356
W       12.74116730       9.55616515      -0.00000000       0.00020962       0.00009866       0.00000000
W       14.33406343      11.14876688       1.59348690       0.00014065      -0.00033763      -0.00014065
W       12.73937109       9.55591273       3.18817924       0.00006638       0.00019622      -0.00006638
W       14.33331735      11.14820048       4.77934984       0.00010505      -0.00015225       0.00015225
W       12.73971829       9.55486768       6.37268265       0.00010113       0.00013992      -0.00013992
W       14.33285356      11.14811892       7.96377516       0.00010768      -0.00010957       0.00000000
W       12.73971829       9.55486768       9.55486768       0.00010113       0.00013992       0.00013992
W       14.33331735      11.14820048      11.14820048       0.00010505      -0.00015225      -0.00015225
W       12.73937109       9.55591273      12.73937109       0.00006638       0.00019622       0.00006638
W       14.33406343      11.14876688      14.33406343       0.00014065      -0.00033763       0.00014065
W       12.74141159      12.74141159      -0.00000000      -0.00013301      -0.00013301       0.00000000
W       14.33430972      14.33430972       1.59324060       0.00001945       0.00001945      -0.00001945
W       12.74014493      12.74014493       3.18740539      -0.00012193      -0.00012193       0.00012193
W       14.33406343      14.33406343       4.77878345       0.00014065       0.00014065       0.00033763
W       12.73937109      12.73937109       6.37163759       0.00006638       0.00006638      -0.00019622
W       14.33396045      14.33396045       7.96377516       0.00015356       0.00015356       0.00000000
W       12.73937109      12.73937109       9.55591273       0.00006638       0.00006638       0.00019622
W       14.33406343      14.33406343      11.14876688       0.00014065       0.00014065      -0.00033763
W       12.74014493      12.74014493      12.74014493      -0.00012193      -0.00012193      -0.00012193
W       14.33430972      14.33430972      14.33430972       0.00001945       0.00001945       0.00001945
249
Lattice="15.927550324376707 0.0 0.0 0.0 15.927550324376707 0.0 0.0 0.0 15.927550324376707" Properties=species:S:1:pos:R:3:forces:R:3 energy=-2376.3256867697633 pbc="T T T"
W        0.00106044       0.00106044       0.00106044       0.00306771       0.00306771       0.00306771
W        1.59636185       1.59636185       1.59636185       0.00565765       0.00565765       0.00565765
W        0.00237765       0.00237765       3.18621832       0.00545054       0.00545054       0.00499638
W        1.59934941       1.59934941       4.78032326       0.00669470       0.00669470       0.00766380
W        0.00260138       0.00260138       6.37093342       0.00483086       0.00483086       0.00357925
W        1.59755767       1.59755767       7.96384744       0.00535663       0.00535663       0.00269009
W        0.00095371       0.00095371       9.55638947       0.00308723       0.00308723       0.00104611
W        1.59405145       1.59405145      11.14982861       0.00315603       0.00315603       0.00302215
W        0.00032912       0.00032912      12.74263664       0.00199842       0.00199842       0.00098351
W        1.59382578       1.59382578      14.33689267       0.00484867       0.00484867       0.00372502
W        0.00237765       3.18621832       0.00237765       0.00545054       0.00499638       0.00545054
W        1.59934941       4.78032326       1.59934941       0.00669470       0.00766380       0.00669470
W        0.00622515       3.18850043       3.18850043       0.00581191       0.00591995       0.00591995
W        1.60747059       4.78612815       4.78612815       0.00934322       0.00465901       0.00465901
W        0.00754618       3.18927157       6.37219140       0.00489655       0.00493057       0.00496624
W        1.60189499       4.78403773       7.96618455       0.01430502       0.00442656       0.00837291
W        0.00294867       3.18664381       9.55684459       0.00423267       0.00311369       0.00187174
W        1.59391947       4.77842675      11.15203047       0.01099646       0.00566583      -0.00127049
W        0.00079825       3.18558312      12.74342218       0.00396908       0.00317425       0.00209442
W        1.59444258       4.77870595      14.33866498       0.00547028       0.00405851       0.00274534
W        0.00260138       6.37093342       0.00260138       0.00483086       0.00357925       0.00483086
W        1.59755767       7.96384744       1.59755767       0.00535663       0.00269009       0.00535663
W        0.00754618       6.37219140       3.18927157       0.00489655       0.00496624       0.00493057
W        1.60189499       7.96618455       4.78403773       0.01430502       0.00837291       0.00442656
W        0.00930148       6.37410021       6.37410021       0.00201126       0.00398988       0.00398988
W        1.59296337       7.96814881       7.96814881       0.05277761       0.00053070       0.00053070
W        0.00055970       6.37187287       9.55802207       0.01038441       0.00249656       0.00076750
W        1.59009686       7.96389387      11.15319747       0.01588973       0.00520047      -0.00397946
W       -0.00068749       6.37089493      12.74393520       0.00651544       0.00052870       0.00089312
W        1.59308564       7.96386822      14.33803407       0.00453522       0.00037059       0.00122737
W        0.00095371       9.55638947       0.00095371       0.00308723       0.00104611       0.00308723
W        1.59405145      11.14982861       1.59405145       0.00315603       0.00302215       0.00315603
W        0.00294867       9.55684459       3.18664381       0.00423267       0.00187174       0.00311369