249
Lattice="15.927550324053112 0.0 0.0 0.0 15.927550324053112 0.0 0.0 0.0 15.927550324053112" Properties=species:S:1:pos:R:3:forces:R:3 energy=-2376.8371147682337 pbc="T T T"
W        0.00000000       0.00000000       0.00000000       0.00000000       0.00000000       0.00000000
W        1.59349413       1.59349413       1.59349413      -0.00003735      -0.00003735      -0.00003735
W        0.00000000       0.00000000       3.18602177       0.00000000       0.00000000       0.00083313
W        1.59386617       1.59386617       4.77893761      -0.00023625      -0.00023625       0.00050054
W        0.00000000       0.00000000       6.37135845       0.00000000       0.00000000       0.00050160
W        1.59397091       1.59397091       7.96377516      -0.00012836      -0.00012836      -0.00000000
W        0.00000000       0.00000000       9.55619187       0.00000000       0.00000000      -0.00050160
W        1.59386617       1.59386617      11.14861272      -0.00023625      -0.00023625      -0.00050054
W       -0.00000000      -0.00000000      12.74152855       0.00000000       0.00000000      -0.00083313
W        1.59349413       1.59349413      14.33405620      -0.00003735      -0.00003735       0.00003735
W        0.00000000       3.18602177       0.00000000       0.00000000       0.00083313       0.00000000
W        1.59386617       4.77893761       1.59386617      -0.00023625       0.00050054      -0.00023625
W        0.00000000       3.18658506       3.18658506       0.00000000       0.00015428       0.00015428
W        1.59535324       4.77993196       4.77993196       0.00008405       0.00029931       0.00029931
W       -0.00000000       3.18696749       6.37163774       0.00000000      -0.00031708      -0.00021731
W        1.59568194       4.78035728       7.96377516       0.00011159       0.00031448       0.00000000
W        0.00000000       3.18696749       9.55591259       0.00000000      -0.00031708       0.00021731
W        1.59535324       4.77993196      11.14761836       0.00008405       0.00029931      -0.00029931
W        0.00000000       3.18658506      12.74096527       0.00000000       0.00015428      -0.00015428
W        1.59386617       4.77893761      14.33368416      -0.00023625       0.00050054       0.00023625
W        0.00000000       6.37135845       0.00000000       0.00000000       0.00050160       0.00000000
W        1.59397091       7.96377516       1.59397091      -0.00012836      -0.00000000      -0.00012836
W       -0.00000000       6.37163774       3.18696749       0.00000000      -0.00021731      -0.00031708
W        1.59568194       7.96377516       4.78035728       0.00011159       0.00000000       0.00031448
W        0.00000000       6.37217817       6.37217817      -0.00000000      -0.00035487      -0.00035487
W        1.59698072       7.96377516       7.96377516       0.00039218       0.00000000       0.00000000
W        0.00000000       6.37217817       9.55537216      -0.00000000      -0.00035487       0.00035487
W        1.59568194       7.96377516      11.14719304       0.00011159      -0.00000000      -0.00031448
W       -0.00000000       6.37163774      12.74058283       0.00000000      -0.00021731       0.00031708
W        1.59397091       7.96377516      14.33357941      -0.00012836      -0.00000000       0.00012836
W        0.00000000       9.55619187       0.00000000       0.00000000      -0.00050160       0.00000000
W        1.59386617      11.14861272       1.59386617      -0.00023625      -0.00050054      -0.00023625
W       -0.00000000       9.55591259       3.18696749       0.00000000       0.00021731      -0.00031708
W        1.59535324      11.14761836       4.77993196       0.00008405      -0.00029931       0.00029931
W        0.00000000       9.55537216       6.37217817      -0.00000000       0.00035487      -0.00035487
W        1.59568194      11.14719304       7.96377516       0.00011159      -0.00031448      -0.00000000
W        0.00000000       9.55537216       9.55537216      -0.00000000       0.00035487       0.00035487
W        1.59535324      11.14761836      11.14761836       0.00008405      -0.00029931      -0.00029931
W        0.00000000       9.55591259      12.74058283       0.00000000       0.00021731       0.00031708
W        1.59386617      11.14861272      14.33368416      -0.00023625      -0.00050054       0.00023625
W        0.00000000      12.74152855       0.00000000       0.00000000      -0.00083313       0.00000000
W        1.59349413      14.33405620       1.59349413      -0.00003735       0.00003735      -0.00003735
W        0.00000000      12.74096527       3.18658506       0.00000000      -0.00015428       0.00015428
W        1.59386617      14.33368416       4.77893761      -0.00023625       0.00023625       0.00050054
W       -0.00000000      12.74058283       6.37163774       0.00000000       0.00031708      -0.00021731
W        1.59397091      14.33357941       7.96377516      -0.00012836       0.00012836      -0.00000000
W        0.00000000      12.74058283       9.55591259       0.00000000       0.00031708       0.00021731
W        1.59386617      14.33368416      11.14861272      -0.00023625       0.00023625      -0.00050054
W        0.00000000      12.74096527      12.74096527       0.00000000      -0.00015428      -0.00015428
W        1.59349413      14.33405620      14.33405620      -0.00003735       0.00003735       0.00003735
W        3.18602177       0.00000000       0.00000000       0.00083313       0.00000000       0.00000000
W        4.77893761       1.59386617       1.59386617       0.00050054      -0.00023625      -0.00023625
W        3.18658506       0.00000000       3.18658506       0.00015428       0.00000000       0.00015428
W        4.77993196       1.59535324       4.77993196       0.00029931       0.00008405       0.00029931
W        3.18696749      -0.00000000       6.37163774      -0.00031708       0.00000000      -0.00021731
W        4.78035728       1.59568194       7.96377516       0.00031448       0.00011159       0.00000000
W        3.18696749       0.00000000       9.55591259      -0.00031708       0.00000000       0.00021731
W        4.77993196       1.59535324      11.14761836       0.00029931       0.00008405      -0.00029931
W        3.18658506       0.00000000      12.74096527       0.00015428       0.00000000      -0.00015428
W        4.77893761       1.59386617      14.33368416       0.00050054      -0.00023625       0.00023625
W        3.18658506       3.18658506       0.00000000       0.00015428       0.00015428       0.00000000
W        4.77993196       4.77993196       1.59535324       0.00029931       0.00029931       0.00008405
W        3.18831016       3.18831016       3.18831016       0.00018265       0.00018265       0.00018265
W        4.78903977       4.78903977       4.78903977       0.00044377       0.00044377       0.00044377
W        3.18932077       3.18932077       6.37172328      -0.00000501      -0.00000501      -0.00037579
W        4.78674629       4.78674629       7.96377516       0.00003326       0.00003326      -0.00000000
W        3.18932077       3.18932077       9.55582705      -0.00000501      -0.00000501       0.00037579
W        4.78903977       4.78903977      11.13851055       0.00044377       0.00044377      -0.00044377
W        3.18831016       3.18831016      12.73924016       0.00018265       0.00018265      -0.00018265
W        4.77993196       4.77993196      14.33219708       0.00029931       0.00029931      -0.00008405
W        3.18696749       6.37163774      -0.00000000      -0.00031708      -0.00021731       0.00000000
W        4.78035728       7.96377516       1.59568194       0.00031448       0.00000000       0.00011159
W        3.18932077       6.37172328       3.18932077      -0.00000501      -0.00037579      -0.00000501
W        4.78674629       7.96377516       4.78674629       0.00003326      -0.00000000       0.00003326
W        3.19240918       6.37266507       6.37266507       0.00019477      -0.00042568      -0.00042568
W        4.81005960       7.96377516       7.96377516       0.00031699       0.00000000      -0.00000000
W        3.19240918       6.37266507       9.55488525       0.00019477      -0.00042568       0.00042568
W        4.78674629       7.96377516      11.14080403       0.00003326      -0.00000000      -0.00003326
W        3.18932077       6.37172328      12.73822955      -0.00000501      -0.00037579       0.00000501
W        4.78035728       7.96377516      14.33186838       0.00031448       0.00000000      -0.00011159
W        3.18696749       9.55591259      -0.00000000      -0.00031708       0.00021731       0.00000000
W        4.77993196      11.14761836       1.59535324       0.00029931      -0.00029931       0.00008405
W        3.18932077       9.55582705       3.18932077      -0.00000501       0.00037579      -0.00000501
W        4.78903977      11.13851055       4.78903977       0.00044377      -0.00044377       0.00044377
W        3.19240918       9.55488525       6.37266507       0.00019477       0.00042568      -0.00042568
W        4.78674629      11.14080403       7.96377516       0.00003326      -0.00003326      -0.00000000
W        3.19240918       9.55488525       9.55488525       0.00019477       0.00042568       0.00042568
W        4.78903977      11.13851055      11.13851055       0.00044377      -0.00044377      -0.00044377
W        3.18932077       9.55582705      12.73822955      -0.00000501       0.00037579       0.00000501
W        4.77993196      11.14761836      14.33219708       0.00029931      -0.00029931      -0.00008405
W        3.18658506      12.74096527       0.00000000       0.00015428      -0.00015428       0.00000000
W        4.77893761      14.33368416       1.59386617       0.00050054       0.00023625      -0.00023625
W        3.18831016      12.73924016       3.18831016       0.00018265      -0.00018265       0.00018265
W        4.77993196      14.33219708       4.77993196       0.00029931      -0.00008405       0.00029931
W        3.18932077      12.73822955       6.37172328      -0.00000501       0.00000501      -0.00037579
W        4.78035728      14.33186838       7.96377516       0.00031448      -0.00011159      -0.00000000
W        3.18932077      12.73822955       9.55582705      -0.00000501       0.00000501       0.00037579
W        4.77993196      14.33219708      11.14761836       0.00029931      -0.00008405      -0.00029931
W        3.18831016      12.73924016      12.73924016       0.00018265      -0.00018265      -0.00018265
W        4.77893761      14.33368416      14.33368416       0.00050054       0.00023625       0.00023625
W        6.37135845       0.00000000       0.00000000       0.00050160       0.00000000      -0.00000000
W        7.96377516       1.59397091       1.59397091      -0.00000000      -0.00012836      -0.00012836
W        6.37163774       0.00000000       3.18696749      -0.00021731       0.00000000      -0.00031708
W        7.96377516       1.59568194       4.78035728      -0.00000000       0.00011159       0.00031448
W        6.37217817       0.00000000       6.37217817      -0.00035487      -0.00000000      -0.00035487
W        7.96377516       1.59698072       7.96377516       0.00000000       0.00039218       0.00000000
W        6.37217817       0.00000000       9.55537216      -0.00035487       0.00000000       0.00035487
W        7.96377516       1.59568194      11.14719304      -0.00000000       0.00011159      -0.00031448
W        6.37163774       0.00000000      12.74058283      -0.00021731       0.00000000       0.00031708
W        7.96377516       1.59397091      14.33357941      -0.00000000      -0.00012836       0.00012836
W        6.37163774       3.18696749      -0.00000000      -0.00021731      -0.00031708       0.00000000
W        7.96377516       4.78035728       1.59568194      -0.00000000       0.00031448       0.00011159
W        6.37172328       3.18932077       3.18932077      -0.00037579      -0.00000501      -0.00000501
W        7.96377516       4.78674629       4.78674629      -0.00000000       0.00003326       0.00003326
W        6.37266507       3.19240918       6.37266507      -0.00042568       0.00019477      -0.00042568
W        7.96377516       4.81005960       7.96377516      -0.00000000       0.00031699      -0.00000000
W        6.37266507       3.19240918       9.55488525      -0.00042568       0.00019477       0.00042568
W        7.96377516       4.78674629      11.14080403      -0.00000000       0.00003326      -0.00003326
W        6.37172328       3.18932077      12.73822955      -0.00037579      -0.00000501       0.00000501
W        7.96377516       4.78035728      14.33186838      -0.00000000       0.00031448      -0.00011159
W        6.37217817       6.37217817       0.00000000      -0.00035487      -0.00035487      -0.00000000
W        7.96377516       7.96377516       1.59698072       0.00000000       0.00000000       0.00039218
W        6.37266507       6.37266507       3.19240918      -0.00042568      -0.00042568       0.00019477
W        7.96377516       7.96377516       4.81005960      -0.00000000       0.00000000       0.00031699
W        6.40522457       6.40522457       6.40522457      -0.00011841      -0.00011841      -0.00011841
W        6.40522457       6.40522457       9.52232575      -0.00011841      -0.00011841       0.00011841
W        7.96377516       7.96377516      11.11749072       0.00000000       0.00000000      -0.00031699
W        6.37266507       6.37266507      12.73514115      -0.00042568      -0.00042568      -0.00019477
W        7.96377516       7.96377516      14.33056961       0.00000000       0.00000000      -0.00039218
W        6.37217817       9.55537216       0.00000000      -0.00035487       0.00035487      -0.00000000
W        7.96377516      11.14719304       1.59568194       0.00000000      -0.00031448       0.00011159
W        6.37266507       9.55488525       3.19240918      -0.00042568       0.00042568       0.00019477
W        7.96377516      11.14080403       4.78674629      -0.00000000      -0.00003326       0.00003326
W        6.40522457       9.52232575       6.40522457      -0.00011841       0.00011841      -0.00011841
W        7.96377516      11.11749072       7.96377516      -0.00000000      -0.00031699      -0.00000000
W        6.40522457       9.52232575       9.52232575      -0.00011841       0.00011841       0.00011841
W        7.96377516      11.14080403      11.14080403      -0.00000000      -0.00003326      -0.00003326
W        6.37266507       9.55488525      12.73514115      -0.00042568       0.00042568      -0.00019477
W        7.96377516      11.14719304      14.33186838       0.00000000      -0.00031448      -0.00011159
W        6.37163774      12.74058283      -0.00000000      -0.00021731       0.00031708       0.00000000
W        7.96377516      14.33357941       1.59397091      -0.00000000       0.00012836      -0.00012836
W        6.37172328      12.73822955       3.18932077      -0.00037579       0.00000501      -0.00000501
W        7.96377516      14.33186838       4.78035728      -0.00000000      -0.00011159       0.00031448
W        6.37266507      12.73514115       6.37266507      -0.00042568      -0.00019477      -0.00042568
W        7.96377516      14.33056961       7.96377516      -0.00000000      -0.00039218       0.00000000
W        6.37266507      12.73514115       9.55488525      -0.00042568      -0.00019477       0.00042568
W        7.96377516      14.33186838      11.14719304       0.00000000      -0.00011159      -0.00031448
W        6.37172328      12.73822955      12.73822955      -0.00037579       0.00000501       0.00000501
W        7.96377516      14.33357941      14.33357941      -0.00000000       0.00012836       0.00012836
W        9.55619187       0.00000000       0.00000000      -0.00050160       0.00000000      -0.00000000
W       11.14861272       1.59386617       1.59386617      -0.00050054      -0.00023625      -0.00023625
W        9.55591259       0.00000000       3.18696749       0.00021731       0.00000000      -0.00031708
W       11.14761836       1.59535324       4.77993196      -0.00029931       0.00008405       0.00029931
W        9.55537216       0.00000000       6.37217817       0.00035487      -0.00000000      -0.00035487
W       11.14719304       1.59568194       7.96377516      -0.00031448       0.00011159      -0.00000000
W        9.55537216       0.00000000       9.55537216       0.00035487      -0.00000000       0.00035487
W       11.14761836       1.59535324      11.14761836      -0.00029931       0.00008405      -0.00029931
W        9.55591259      -0.00000000      12.74058283       0.00021731       0.00000000       0.00031708
W       11.14861272       1.59386617      14.33368416      -0.00050054      -0.00023625       0.00023625
W        9.55591259       3.18696749      -0.00000000       0.00021731      -0.00031708       0.00000000
W       11.14761836       4.77993196       1.59535324      -0.00029931       0.00029931       0.00008405
W        9.55582705       3.18932077       3.18932077       0.00037579      -0.00000501      -0.00000501
W       11.13851055       4.78903977       4.78903977      -0.00044377       0.00044377       0.00044377
W        9.55488525       3.19240918       6.37266507       0.00042568       0.00019477      -0.00042568
W       11.14080403       4.78674629       7.96377516      -0.00003326       0.00003326      -0.00000000
W        9.55488525       3.19240918       9.55488525       0.00042568       0.00019477       0.00042568
W       11.13851055       4.78903977      11.13851055      -0.00044377       0.00044377      -0.00044377
W        9.55582705       3.18932077      12.73822955       0.00037579      -0.00000501       0.00000501
W       11.14761836       4.77993196      14.33219708      -0.00029931       0.00029931      -0.00008405
W        9.55537216       6.37217817       0.00000000       0.00035487      -0.00035487      -0.00000000
W       11.14719304       7.96377516       1.59568194      -0.00031448       0.00000000       0.00011159
W        9.55488525       6.37266507       3.19240918       0.00042568      -0.00042568       0.00019477
W       11.14080403       7.96377516       4.78674629      -0.00003326      -0.00000000       0.00003326
W        9.52232575       6.40522457       6.40522457       0.00011841      -0.00011841      -0.00011841
W       11.11749072       7.96377516       7.96377516      -0.00031699       0.00000000      -0.00000000
W        9.52232575       6.40522457       9.52232575       0.00011841      -0.00011841       0.00011841
W       11.14080403       7.96377516      11.14080403      -0.00003326      -0.00000000      -0.00003326
W        9.55488525       6.37266507      12.73514115       0.00042568      -0.00042568      -0.00019477
W       11.14719304       7.96377516      14.33186838      -0.00031448       0.00000000      -0.00011159
W        9.55537216       9.55537216       0.00000000       0.00035487       0.00035487      -0.00000000
W       11.14761836      11.14761836       1.59535324      -0.00029931      -0.00029931       0.00008405
W        9.55488525       9.55488525       3.19240918       0.00042568       0.00042568       0.00019477
W       11.13851055      11.13851055       4.78903977      -0.00044377      -0.00044377       0.00044377
W        9.52232575       9.52232575       6.40522457       0.00011841       0.00011841      -0.00011841
W       11.14080403      11.14080403       7.96377516      -0.00003326      -0.00003326      -0.00000000
W        9.52232575       9.52232575       9.52232575       0.00011841       0.00011841       0.00011841
W       11.13851055      11.13851055      11.13851055      -0.00044377      -0.00044377      -0.00044377
W        9.55488525       9.55488525      12.73514115       0.00042568       0.00042568      -0.00019477
W       11.14761836      11.14761836      14.33219708      -0.00029931      -0.00029931      -0.00008405
W        9.55591259      12.74058283       0.00000000       0.00021731       0.00031708       0.00000000
W       11.14861272      14.33368416       1.59386617      -0.00050054       0.00023625      -0.00023625
W        9.55582705      12.73822955       3.18932077       0.00037579       0.00000501      -0.00000501
W       11.14761836      14.33219708       4.77993196      -0.00029931      -0.00008405       0.00029931
W        9.55488525      12.73514115       6.37266507       0.00042568      -0.00019477      -0.00042568
W       11.14719304      14.33186838       7.96377516      -0.00031448      -0.00011159       0.00000000
W        9.55488525      12.73514115       9.55488525       0.00042568      -0.00019477       0.00042568
W       11.14761836      14.33219708      11.14761836      -0.00029931      -0.00008405      -0.00029931
W        9.55582705      12.73822955      12.73822955       0.00037579       0.00000501       0.00000501
W       11.14861272      14.33368416      14.33368416      -0.00050054       0.00023625       0.00023625
W       12.74152855      -0.00000000       0.00000000      -0.00083313       0.00000000       0.00000000
W       14.33405620       1.59349413       1.59349413       0.00003735      -0.00003735      -0.00003735
W       12.74096527       0.00000000       3.18658506      -0.00015428       0.00000000       0.00015428
W       14.33368416       1.59386617       4.77893761       0.00023625      -0.00023625       0.00050054
W       12.74058283      -0.00000000       6.37163774       0.00031708       0.00000000      -0.00021731
W       14.33357941       1.59397091       7.96377516       0.00012836      -0.00012836      -0.00000000
W       12.74058283      -0.00000000       9.55591259       0.00031708       0.00000000       0.00021731
W       14.33368416       1.59386617      11.14861272       0.00023625      -0.00023625      -0.00050054
W       12.74096527       0.00000000      12.74096527      -0.00015428       0.00000000      -0.00015428
W       14.33405620       1.59349413      14.33405620       0.00003735      -0.00003735       0.00003735
W       12.74096527       3.18658506       0.00000000      -0.00015428       0.00015428       0.00000000
W       14.33368416       4.77893761       1.59386617       0.00023625       0.00050054      -0.00023625
W       12.73924016       3.18831016       3.18831016      -0.00018265       0.00018265       0.00018265
W       14.33219708       4.77993196       4.77993196      -0.00008405       0.00029931       0.00029931
W       12.73822955       3.18932077       6.37172328       0.00000501      -0.00000501      -0.00037579
W       14.33186838       4.78035728       7.96377516      -0.00011159       0.00031448       0.00000000
W       12.73822955       3.18932077       9.55582705       0.00000501      -0.00000501       0.00037579
W       14.33219708       4.77993196      11.14761836      -0.00008405       0.00029931      -0.00029931
W       12.73924016       3.18831016      12.73924016      -0.00018265       0.00018265      -0.00018265
W       14.33368416       4.77893761      14.33368416       0.00023625       0.00050054       0.00023625
W       12.74058283       6.37163774       0.00000000       0.00031708      -0.00021731       0.00000000
W       14.33357941       7.96377516       1.59397091       0.00012836      -0.00000000      -0.00012836
W       12.73822955       6.37172328       3.18932077       0.00000501      -0.00037579      -0.00000501
W       14.33186838       7.96377516       4.78035728      -0.00011159       0.00000000       0.00031448
W       12.73514115       6.37266507       6.37266507      -0.00019477      -0.00042568      -0.00042568
W       14.33056961       7.96377516       7.96377516      -0.00039218       0.00000000       0.00000000
W       12.73514115       6.37266507       9.55488525      -0.00019477      -0.00042568       0.00042568
W       14.33186838       7.96377516      11.14719304      -0.00011159       0.00000000      -0.00031448
W       12.73822955       6.37172328      12.73822955       0.00000501      -0.00037579       0.00000501
W       14.33357941       7.96377516      14.33357941       0.00012836      -0.00000000       0.00012836
W       12.74058283       9.55591259      -0.00000000       0.00031708       0.00021731       0.00000000
W       14.33368416      11.14861272       1.59386617       0.00023625      -0.00050054      -0.00023625
W       12.73822955       9.55582705       3.18932077       0.00000501       0.00037579      -0.00000501
W       14.33219708      11.14761836       4.77993196      -0.00008405      -0.00029931       0.00029931
W       12.73514115       9.55488525       6.37266507      -0.00019477       0.00042568      -0.00042568
W       14.33186838      11.14719304       7.96377516      -0.00011159      -0.00031448      -0.00000000
W       12.73514115       9.55488525       9.55488525      -0.00019477       0.00042568       0.00042568
W       14.33219708      11.14761836      11.14761836      -0.00008405      -0.00029931      -0.00029931
W       12.73822955       9.55582705      12.73822955       0.00000501       0.00037579       0.00000501
W       14.33368416      11.14861272      14.33368416       0.00023625      -0.00050054       0.00023625
W       12.74096527      12.74096527       0.00000000      -0.00015428      -0.00015428       0.00000000
W       14.33405620      14.33405620       1.59349413       0.00003735       0.00003735      -0.00003735
W       12.73924016      12.73924016       3.18831016      -0.00018265      -0.00018265       0.00018265
W       14.33368416      14.33368416       4.77893761       0.00023625       0.00023625       0.00050054
W       12.73822955      12.73822955       6.37172328       0.00000501       0.00000501      -0.00037579
W       14.33357941      14.33357941       7.96377516       0.00012836       0.00012836      -0.00000000
W       12.73822955      12.73822955       9.55582705       0.00000501       0.00000501       0.00037579
W       14.33368416      14.33368416      11.14861272       0.00023625       0.00023625      -0.00050054
W       12.73924016      12.73924016      12.73924016      -0.00018265      -0.00018265      -0.00018265
W       14.33405620      14.33405620      14.33405620       0.00003735       0.00003735       0.00003735
249
Lattice="15.927550324053112 0.0 0.0 0.0 15.927550324053112 0.0 0.0 0.0 15.927550324053112" Properties=species:S:1:pos:R:3:forces:R:3 energy=-2376.78478506995 pbc="T T T"
W       -0.01620834      -0.01620834      -0.01620834      -0.00116761      -0.00116761      -0.00116761
W        1.57976836       1.57976836       1.57976836      -0.00340971      -0.00340971      -0.00340971
W       -0.01490029      -0.01490029       3.16951325      -0.00188844      -0.00188844      -0.00329368
W        1.58163636       1.58163636       4.76405090      -0.00232603      -0.00232603      -0.00236964
W       -0.01613949      -0.01613949       6.35400743       0.00188389       0.00188389      -0.00141327
W        1.57892466       1.57892466       7.94724646       0.00012842       0.00012842       0.00150426
W       -0.01842279      -0.01842279       9.53881321       0.00308010       0.00308010      -0.00192429
W        1.57583494       1.57583494      11.13258583       0.00093759       0.00093759       0.00014171
W       -0.01815297      -0.01815297      12.72487522      -0.00029275      -0.00029275      -0.00049429
W        1.57671803       1.57671803      14.31967173      -0.00089699      -0.00089699      -0.00433277
W       -0.01490029       3.16951325      -0.01490029      -0.00188844      -0.00329368      -0.00188844
W        1.58163636       4.76405090       1.58163636      -0.00232603      -0.00236964      -0.00232603
W       -0.01152078       3.17166497       3.17166497      -0.00314526      -0.00015989      -0.00015989
W        1.58839537       4.76815269       4.76815269      -0.00767157      -0.00375873      -0.00375873
W       -0.01169990       3.17107216       6.35541929      -0.00325000       0.00262646      -0.00056365
W        1.58334875       4.76557462       7.94878475      -0.00339718       0.00011644       0.00507797
W       -0.01626910       3.16795326       9.53914428       0.00176113       0.00503354       0.00066553
W        1.57633841       4.76062830      11.13318537       0.00715520       0.00643383      -0.00239542
W       -0.01768115       3.16771939      12.72527773       0.00301854       0.00041468       0.00050191
W        1.57656301       4.76153076      14.32017323       0.00346649      -0.00095000      -0.00239543
W       -0.01613949       6.35400743      -0.01613949       0.00188389      -0.00141327       0.00188389
W        1.57892466       7.94724646       1.57892466       0.00012842       0.00150426       0.00012842
W       -0.01169990       6.35541929       3.17107216      -0.00325000      -0.00056365       0.00262646
W        1.58334875       7.94878475       4.76557462      -0.00339718       0.00507797       0.00011644
W       -0.01182052       6.35566950       6.35566950      -0.00385006       0.00277919       0.00277919
W        1.57585566       7.94854312       7.94854312       0.02627222       0.00004410       0.00004410
W       -0.01905447       6.35285718       9.53865948       0.00806241       0.00473603      -0.00020062
W        1.57201320       7.94509744      11.13210953       0.01725931       0.00524073      -0.00308921
W       -0.01989302       6.35252065      12.72422116       0.00541115       0.00090426       0.00134252
W        1.57407866       7.94606171      14.31811757       0.00666778       0.00003918       0.00040093
W       -0.01842279       9.53881321      -0.01842279       0.00308010      -0.00192429       0.00308010
W        1.57583494      11.13258583       1.57583494       0.00093759       0.00014171       0.00093759
W       -0.01626910       9.53914428       3.16795326       0.00176113       0.00066553       0.00503354