249
Lattice="15.927550324092838 0.0 0.0 0.0 15.927550324092838 0.0 0.0 0.0 15.927550324092838" Properties=species:S:1:pos:R:3:forces:R:3 energy=-2376.6732373159443 pbc="T T T"
W        0.00000000       0.00000000       0.00000000       0.00000000       0.00000000       0.00000000
W        1.59330817       1.59330817       1.59330817      -0.00001555      -0.00001555      -0.00001555
W        0.00000000       0.00000000       3.18555009       0.00000000       0.00000000       0.00069652
W        1.59351146       1.59351146       4.77833613      -0.00032481      -0.00032481       0.00038886
W        0.00000000       0.00000000       6.37099461       0.00000000       0.00000000       0.00065017
W        1.59322883       1.59322883       7.96377516      -0.00005384      -0.00005384      -0.00000000
W        0.00000000       0.00000000       9.55655571       0.00000000       0.00000000      -0.00065017
W        1.59351146       1.59351146      11.14921419      -0.00032481      -0.00032481      -0.00038886
W        0.00000000       0.00000000      12.74200024       0.00000000       0.00000000      -0.00069652
W        1.59330817       1.59330817      14.33424215      -0.00001555      -0.00001555       0.00001555
W        0.00000000       3.18555009       0.00000000       0.00000000       0.00069652       0.00000000
W        1.59351146       4.77833613       1.59351146      -0.00032481       0.00038886      -0.00032481
W        0.00000000       3.18615455       3.18615455       0.00000000       0.00025451       0.00025451
W        1.59480476       4.77913752       4.77913752      -0.00005074       0.00023715       0.00023715
W        0.00000000       3.18598103       6.37116074       0.00000000       0.00010226      -0.00024339
W        1.59376445       4.77916125       7.96377516       0.00028537       0.00026752       0.00000000
W        0.00000000       3.18598103       9.55638958       0.00000000       0.00010226       0.00024339
W        1.59480476       4.77913752      11.14841280      -0.00005074       0.00023715      -0.00023715
W        0.00000000       3.18615455      12.74139578       0.00000000       0.00025451      -0.00025451
W        1.59351146       4.77833613      14.33403886      -0.00032481       0.00038886       0.00032481
W        0.00000000       6.37099461       0.00000000       0.00000000       0.00065017       0.00000000
W        1.59322883       7.96377516       1.59322883      -0.00005384      -0.00000000      -0.00005384
W        0.00000000       6.37116074       3.18598103       0.00000000      -0.00024339       0.00010226
W        1.59376445       7.96377516       4.77916125       0.00028537       0.00000000       0.00026752
W        0.00000000       6.37103203       6.37103203      -0.00000000      -0.00004821      -0.00004821
W        1.59100070       7.96377516       7.96377516       0.00070298       0.00000000      -0.00000000
W        0.00000000       6.37103203       9.55651830      -0.00000000      -0.00004821       0.00004821
W        1.59376445       7.96377516      11.14838907       0.00028537       0.00000000      -0.00026752
W        0.00000000       6.37116074      12.74156929       0.00000000      -0.00024339      -0.00010226
W        1.59322883       7.96377516      14.33432149      -0.00005384      -0.00000000       0.00005384
W        0.00000000       9.55655571       0.00000000       0.00000000      -0.00065017       0.00000000
W        1.59351146      11.14921419       1.59351146      -0.00032481      -0.00038886      -0.00032481
W        0.00000000       9.55638958       3.18598103       0.00000000       0.00024339       0.00010226
W        1.59480476      11.14841280       4.77913752      -0.00005074      -0.00023715       0.00023715
W        0.00000000       9.55651830       6.37103203      -0.00000000       0.00004821      -0.00004821
W        1.59376445      11.14838907       7.96377516       0.00028537      -0.00026752      -0.00000000
W        0.00000000       9.55651830       9.55651830      -0.00000000       0.00004821       0.00004821
W        1.59480476      11.14841280      11.14841280      -0.00005074      -0.00023715      -0.00023715
W        0.00000000       9.55638958      12.74156929       0.00000000       0.00024339      -0.00010226
W        1.59351146      11.14921419      14.33403886      -0.00032481      -0.00038886       0.00032481
W        0.00000000      12.74200024       0.00000000       0.00000000      -0.00069652       0.00000000
W        1.59330817      14.33424215       1.59330817      -0.00001555       0.00001555      -0.00001555
W        0.00000000      12.74139578       3.18615455       0.00000000      -0.00025451       0.00025451
W        1.59351146      14.33403886       4.77833613      -0.00032481       0.00032481       0.00038886
W        0.00000000      12.74156929       6.37116074       0.00000000      -0.00010226      -0.00024339
W        1.59322883      14.33432149       7.96377516      -0.00005384       0.00005384      -0.00000000
W        0.00000000      12.74156929       9.55638958       0.00000000      -0.00010226       0.00024339
W        1.59351146      14.33403886      11.14921419      -0.00032481       0.00032481      -0.00038886
W        0.00000000      12.74139578      12.74139578       0.00000000      -0.00025451      -0.00025451
W        1.59330817      14.33424215      14.33424215      -0.00001555       0.00001555       0.00001555
W        3.18555009       0.00000000       0.00000000       0.00069652       0.00000000       0.00000000
W        4.77833613       1.59351146       1.59351146       0.00038886      -0.00032481      -0.00032481
W        3.18615455       0.00000000       3.18615455       0.00025451       0.00000000       0.00025451
W        4.77913752       1.59480476       4.77913752       0.00023715      -0.00005074       0.00023715
W        3.18598103       0.00000000       6.37116074       0.00010226       0.00000000      -0.00024339
W        4.77916125       1.59376445       7.96377516       0.00026752       0.00028537       0.00000000
W        3.18598103       0.00000000       9.55638958       0.00010226       0.00000000       0.00024339
W        4.77913752       1.59480476      11.14841280       0.00023715      -0.00005074      -0.00023715
W        3.18615455       0.00000000      12.74139578       0.00025451       0.00000000      -0.00025451
W        4.77833613       1.59351146      14.33403886       0.00038886      -0.00032481       0.00032481
W        3.18615455       3.18615455       0.00000000       0.00025451       0.00025451       0.00000000
W        4.77913752       4.77913752       1.59480476       0.00023715       0.00023715      -0.00005074
W        3.18797508       3.18797508       3.18797508      -0.00001165      -0.00001165      -0.00001165
W        4.78934822       4.78934822       4.78934822       0.00013649       0.00013649       0.00013649
W        3.18775319       3.18775319       6.37114372       0.00002226       0.00002226      -0.00015226
W        4.77763589       4.77763589       7.96377516      -0.00033223      -0.00033223       0.00000000
W        3.18775319       3.18775319       9.55640660       0.00002226       0.00002226       0.00015226
W        4.78934822       4.78934822      11.13820210       0.00013649       0.00013649      -0.00013649
W        3.18797508       3.18797508      12.73957524      -0.00001165      -0.00001165       0.00001165
W        4.77913752       4.77913752      14.33274557       0.00023715       0.00023715       0.00005074
W        3.18598103       6.37116074       0.00000000       0.00010226      -0.00024339       0.00000000
W        4.77916125       7.96377516       1.59376445       0.00026752       0.00000000       0.00028537
W        3.18775319       6.37114372       3.18775319       0.00002226      -0.00015226       0.00002226
W        4.77763589       7.96377516       4.77763589      -0.00033223       0.00000000      -0.00033223
W        3.18742019       6.37259814       6.37259814       0.00034480      -0.00028582      -0.00028582
W        4.78569000       7.96377516       7.96377516       0.00013763       0.00000000       0.00000000
W        3.18742019       6.37259814       9.55495218       0.00034480      -0.00028582       0.00028582
W        4.77763589       7.96377516      11.14991444      -0.00033223       0.00000000       0.00033223
W        3.18775319       6.37114372      12.73979714       0.00002226      -0.00015226      -0.00002226
W        4.77916125       7.96377516      14.33378588       0.00026752       0.00000000      -0.00028537
W        3.18598103       9.55638958       0.00000000       0.00010226       0.00024339       0.00000000
W        4.77913752      11.14841280       1.59480476       0.00023715      -0.00023715      -0.00005074
W        3.18775319       9.55640660       3.18775319       0.00002226       0.00015226       0.00002226
W        4.78934822      11.13820210       4.78934822       0.00013649      -0.00013649       0.00013649
W        3.18742019       9.55495218       6.37259814       0.00034480       0.00028582      -0.00028582
W        4.77763589      11.14991444       7.96377516      -0.00033223       0.00033223       0.00000000
W        3.18742019       9.55495218       9.55495218       0.00034480       0.00028582       0.00028582
W        4.78934822      11.13820210      11.13820210       0.00013649      -0.00013649      -0.00013649
W        3.18775319       9.55640660      12.73979714       0.00002226       0.00015226      -0.00002226
W        4.77913752      11.14841280      14.33274557       0.00023715      -0.00023715       0.00005074
W        3.18615455      12.74139578       0.00000000       0.00025451      -0.00025451       0.00000000
W        4.77833613      14.33403886       1.59351146       0.00038886       0.00032481      -0.00032481
W        3.18797508      12.73957524       3.18797508      -0.00001165       0.00001165      -0.00001165
W        4.77913752      14.33274557       4.77913752       0.00023715       0.00005074       0.00023715
W        3.18775319      12.73979714       6.37114372       0.00002226      -0.00002226      -0.00015226
W        4.77916125      14.33378588       7.96377516       0.00026752      -0.00028537       0.00000000
W        3.18775319      12.73979714       9.55640660       0.00002226      -0.00002226       0.00015226
W        4.77913752      14.33274557      11.14841280       0.00023715       0.00005074      -0.00023715
W        3.18797508      12.73957524      12.73957524      -0.00001165       0.00001165       0.00001165
W        4.77833613      14.33403886      14.33403886       0.00038886       0.00032481       0.00032481
W        6.37099461       0.00000000       0.00000000       0.00065017       0.00000000       0.00000000
W        7.96377516       1.59322883       1.59322883      -0.00000000      -0.00005384      -0.00005384
W        6.37116074       0.00000000       3.18598103      -0.00024339       0.00000000       0.00010226
W        7.96377516       1.59376445       4.77916125       0.00000000       0.00028537       0.00026752
W        6.37103203       0.00000000       6.37103203      -0.00004821      -0.00000000      -0.00004821
W        7.96377516       1.59100070       7.96377516       0.00000000       0.00070298      -0.00000000
W        6.37103203       0.00000000       9.55651830      -0.00004821      -0.00000000       0.00004821
W        7.96377516       1.59376445      11.14838907      -0.00000000       0.00028537      -0.00026752
W        6.37116074       0.00000000      12.74156929      -0.00024339       0.00000000      -0.00010226
W        7.96377516       1.59322883      14.33432149      -0.00000000      -0.00005384       0.00005384
W        6.37116074       3.18598103       0.00000000      -0.00024339       0.00010226       0.00000000
W        7.96377516       4.77916125       1.59376445      -0.00000000       0.00026752       0.00028537
W        6.37114372       3.18775319       3.18775319      -0.00015226       0.00002226       0.00002226
W        7.96377516       4.77763589       4.77763589       0.00000000      -0.00033223      -0.00033223
W        6.37259814       3.18742019       6.37259814      -0.00028582       0.00034480      -0.00028582
W        7.96377516       4.78569000       7.96377516       0.00000000       0.00013763       0.00000000
W        6.37259814       3.18742019       9.55495218      -0.00028582       0.00034480       0.00028582
W        7.96377516       4.77763589      11.14991444       0.00000000      -0.00033223       0.00033223
W        6.37114372       3.18775319      12.73979714      -0.00015226       0.00002226      -0.00002226
W        7.96377516       4.77916125      14.33378588      -0.00000000       0.00026752      -0.00028537
W        6.37103203       6.37103203       0.00000000      -0.00004821      -0.00004821      -0.00000000
W        7.96377516       7.96377516       1.59100070       0.00000000       0.00000000       0.00070298
W        6.37259814       6.37259814       3.18742019      -0.00028582      -0.00028582       0.00034480
W        7.96377516       7.96377516       4.78569000       0.00000000       0.00000000       0.00013763
W        6.38676037       6.38676037       6.38676037      -0.00014466      -0.00014466      -0.00014466
W        6.38676037       6.38676037       9.54078995      -0.00014466      -0.00014466       0.00014466
W        7.96377516       7.96377516      11.14186033       0.00000000       0.00000000      -0.00013763
W        6.37259814       6.37259814      12.74013013      -0.00028582      -0.00028582      -0.00034480
W        7.96377516       7.96377516      14.33654963      -0.00000000      -0.00000000      -0.00070298
W        6.37103203       9.55651830       0.00000000      -0.00004821       0.00004821      -0.00000000
W        7.96377516      11.14838907       1.59376445      -0.00000000      -0.00026752       0.00028537
W        6.37259814       9.55495218       3.18742019      -0.00028582       0.00028582       0.00034480
W        7.96377516      11.14991444       4.77763589       0.00000000       0.00033223      -0.00033223
W        6.38676037       9.54078995       6.38676037      -0.00014466       0.00014466      -0.00014466
W        7.96377516      11.14186033       7.96377516       0.00000000      -0.00013763       0.00000000
W        6.38676037       9.54078995       9.54078995      -0.00014466       0.00014466       0.00014466
W        7.96377516      11.14991444      11.14991444       0.00000000       0.00033223       0.00033223
W        6.37259814       9.55495218      12.74013013      -0.00028582       0.00028582      -0.00034480
W        7.96377516      11.14838907      14.33378588       0.00000000      -0.00026752      -0.00028537
W        6.37116074      12.74156929       0.00000000      -0.00024339      -0.00010226       0.00000000
W        7.96377516      14.33432149       1.59322883      -0.00000000       0.00005384      -0.00005384
W        6.37114372      12.73979714       3.18775319      -0.00015226      -0.00002226       0.00002226
W        7.96377516      14.33378588       4.77916125       0.00000000      -0.00028537       0.00026752
W        6.37259814      12.74013013       6.37259814      -0.00028582      -0.00034480      -0.00028582
W        7.96377516      14.33654963       7.96377516       0.00000000      -0.00070298      -0.00000000
W        6.37259814      12.74013013       9.55495218      -0.00028582      -0.00034480       0.00028582
W        7.96377516      14.33378588      11.14838907       0.00000000      -0.00028537      -0.00026752
W        6.37114372      12.73979714      12.73979714      -0.00015226      -0.00002226      -0.00002226
W        7.96377516      14.33432149      14.33432149      -0.00000000       0.00005384       0.00005384
W        9.55655571       0.00000000       0.00000000      -0.00065017       0.00000000       0.00000000
W       11.14921419       1.59351146       1.59351146      -0.00038886      -0.00032481      -0.00032481
W        9.55638958       0.00000000       3.18598103       0.00024339       0.00000000       0.00010226
W       11.14841280       1.59480476       4.77913752      -0.00023715      -0.00005074       0.00023715
W        9.55651830       0.00000000       6.37103203       0.00004821      -0.00000000      -0.00004821
W       11.14838907       1.59376445       7.96377516      -0.00026752       0.00028537      -0.00000000
W        9.55651830       0.00000000       9.55651830       0.00004821      -0.00000000       0.00004821
W       11.14841280       1.59480476      11.14841280      -0.00023715      -0.00005074      -0.00023715
W        9.55638958       0.00000000      12.74156929       0.00024339       0.00000000      -0.00010226
W       11.14921419       1.59351146      14.33403886      -0.00038886      -0.00032481       0.00032481
W        9.55638958       3.18598103       0.00000000       0.00024339       0.00010226       0.00000000
W       11.14841280       4.77913752       1.59480476      -0.00023715       0.00023715      -0.00005074
W        9.55640660       3.18775319       3.18775319       0.00015226       0.00002226       0.00002226
W       11.13820210       4.78934822       4.78934822      -0.00013649       0.00013649       0.00013649
W        9.55495218       3.18742019       6.37259814       0.00028582       0.00034480      -0.00028582
W       11.14991444       4.77763589       7.96377516       0.00033223      -0.00033223      -0.00000000
W        9.55495218       3.18742019       9.55495218       0.00028582       0.00034480       0.00028582
W       11.13820210       4.78934822      11.13820210      -0.00013649       0.00013649      -0.00013649
W        9.55640660       3.18775319      12.73979714       0.00015226       0.00002226      -0.00002226
W       11.14841280       4.77913752      14.33274557      -0.00023715       0.00023715       0.00005074
W        9.55651830       6.37103203       0.00000000       0.00004821      -0.00004821      -0.00000000
W       11.14838907       7.96377516       1.59376445      -0.00026752      -0.00000000       0.00028537
W        9.55495218       6.37259814       3.18742019       0.00028582      -0.00028582       0.00034480
W       11.14991444       7.96377516       4.77763589       0.00033223       0.00000000      -0.00033223
W        9.54078995       6.38676037       6.38676037       0.00014466      -0.00014466      -0.00014466
W       11.14186033       7.96377516       7.96377516      -0.00013763       0.00000000       0.00000000
W        9.54078995       6.38676037       9.54078995       0.00014466      -0.00014466       0.00014466
W       11.14991444       7.96377516      11.14991444       0.00033223       0.00000000       0.00033223
W        9.55495218       6.37259814      12.74013013       0.00028582      -0.00028582      -0.00034480
W       11.14838907       7.96377516      14.33378588      -0.00026752       0.00000000      -0.00028537
W        9.55651830       9.55651830       0.00000000       0.00004821       0.00004821      -0.00000000
W       11.14841280      11.14841280       1.59480476      -0.00023715      -0.00023715      -0.00005074
W        9.55495218       9.55495218       3.18742019       0.00028582       0.00028582       0.00034480
W       11.13820210      11.13820210       4.78934822      -0.00013649      -0.00013649       0.00013649
W        9.54078995       9.54078995       6.38676037       0.00014466       0.00014466      -0.00014466
W       11.14991444      11.14991444       7.96377516       0.00033223       0.00033223       0.00000000
W        9.54078995       9.54078995       9.54078995       0.00014466       0.00014466       0.00014466
W       11.13820210      11.13820210      11.13820210      -0.00013649      -0.00013649      -0.00013649
W        9.55495218       9.55495218      12.74013013       0.00028582       0.00028582      -0.00034480
W       11.14841280      11.14841280      14.33274557      -0.00023715      -0.00023715       0.00005074
W        9.55638958      12.74156929       0.00000000       0.00024339      -0.00010226       0.00000000
W       11.14921419      14.33403886       1.59351146      -0.00038886       0.00032481      -0.00032481
W        9.55640660      12.73979714       3.18775319       0.00015226      -0.00002226       0.00002226
W       11.14841280      14.33274557       4.77913752      -0.00023715       0.00005074       0.00023715
W        9.55495218      12.74013013       6.37259814       0.00028582      -0.00034480      -0.00028582
W       11.14838907      14.33378588       7.96377516      -0.00026752      -0.00028537       0.00000000
W        9.55495218      12.74013013       9.55495218       0.00028582      -0.00034480       0.00028582
W       11.14841280      14.33274557      11.14841280      -0.00023715       0.00005074      -0.00023715
W        9.55640660      12.73979714      12.73979714       0.00015226      -0.00002226      -0.00002226
W       11.14921419      14.33403886      14.33403886      -0.00038886       0.00032481       0.00032481
W       12.74200024       0.00000000       0.00000000      -0.00069652       0.00000000       0.00000000
W       14.33424215       1.59330817       1.59330817       0.00001555      -0.00001555      -0.00001555
W       12.74139578       0.00000000       3.18615455      -0.00025451       0.00000000       0.00025451
W       14.33403886       1.59351146       4.77833613       0.00032481      -0.00032481       0.00038886
W       12.74156929      -0.00000000       6.37116074      -0.00010226       0.00000000      -0.00024339
W       14.33432149       1.59322883       7.96377516       0.00005384      -0.00005384      -0.00000000
W       12.74156929       0.00000000       9.55638958      -0.00010226       0.00000000       0.00024339
W       14.33403886       1.59351146      11.14921419       0.00032481      -0.00032481      -0.00038886
W       12.74139578       0.00000000      12.74139578      -0.00025451       0.00000000      -0.00025451
W       14.33424215       1.59330817      14.33424215       0.00001555      -0.00001555       0.00001555
W       12.74139578       3.18615455       0.00000000      -0.00025451       0.00025451       0.00000000
W       14.33403886       4.77833613       1.59351146       0.00032481       0.00038886      -0.00032481
W       12.73957524       3.18797508       3.18797508       0.00001165      -0.00001165      -0.00001165
W       14.33274557       4.77913752       4.77913752       0.00005074       0.00023715       0.00023715
W       12.73979714       3.18775319       6.37114372      -0.00002226       0.00002226      -0.00015226
W       14.33378588       4.77916125       7.96377516      -0.00028537       0.00026752      -0.00000000
W       12.73979714       3.18775319       9.55640660      -0.00002226       0.00002226       0.00015226
W       14.33274557       4.77913752      11.14841280       0.00005074       0.00023715      -0.00023715
W       12.73957524       3.18797508      12.73957524       0.00001165      -0.00001165       0.00001165
W       14.33403886       4.77833613      14.33403886       0.00032481       0.00038886       0.00032481
W       12.74156929       6.37116074       0.00000000      -0.00010226      -0.00024339       0.00000000
W       14.33432149       7.96377516       1.59322883       0.00005384      -0.00000000      -0.00005384
W       12.73979714       6.37114372       3.18775319      -0.00002226      -0.00015226       0.00002226
W       14.33378588       7.96377516       4.77916125      -0.00028537       0.00000000       0.00026752
W       12.74013013       6.37259814       6.37259814      -0.00034480      -0.00028582      -0.00028582
W       14.33654963       7.96377516       7.96377516      -0.00070298       0.00000000      -0.00000000
W       12.74013013       6.37259814       9.55495218      -0.00034480      -0.00028582       0.00028582
W       14.33378588       7.96377516      11.14838907      -0.00028537       0.00000000      -0.00026752
W       12.73979714       6.37114372      12.73979714      -0.00002226      -0.00015226      -0.00002226
W       14.33432149       7.96377516      14.33432149       0.00005384      -0.00000000       0.00005384
W       12.74156929       9.55638958       0.00000000      -0.00010226       0.00024339       0.00000000
W       14.33403886      11.14921419       1.59351146       0.00032481      -0.00038886      -0.00032481
W       12.73979714       9.55640660       3.18775319      -0.00002226       0.00015226       0.00002226
W       14.33274557      11.14841280       4.77913752       0.00005074      -0.00023715       0.00023715
W       12.74013013       9.55495218       6.37259814      -0.00034480       0.00028582      -0.00028582
W       14.33378588      11.14838907       7.96377516      -0.00028537      -0.00026752       0.00000000
W       12.74013013       9.55495218       9.55495218      -0.00034480       0.00028582       0.00028582
W       14.33274557      11.14841280      11.14841280       0.00005074      -0.00023715      -0.00023715
W       12.73979714       9.55640660      12.73979714      -0.00002226       0.00015226      -0.00002226
W       14.33403886      11.14921419      14.33403886       0.00032481      -0.00038886       0.00032481
W       12.74139578      12.74139578       0.00000000      -0.00025451      -0.00025451       0.00000000
W       14.33424215      14.33424215       1.59330817       0.00001555       0.00001555      -0.00001555
W       12.73957524      12.73957524       3.18797508       0.00001165       0.00001165      -0.00001165
W       14.33403886      14.33403886       4.77833613       0.00032481       0.00032481       0.00038886
W       12.73979714      12.73979714       6.37114372      -0.00002226      -0.00002226      -0.00015226
W       14.33432149      14.33432149       7.96377516       0.00005384       0.00005384      -0.00000000
W       12.73979714      12.73979714       9.55640660      -0.00002226      -0.00002226       0.00015226
W       14.33403886      14.33403886      11.14921419       0.00032481       0.00032481      -0.00038886
W       12.73957524      12.73957524      12.73957524       0.00001165       0.00001165       0.00001165
W       14.33424215      14.33424215      14.33424215       0.00001555       0.00001555       0.00001555
249
Lattice="15.927550324092838 0.0 0.0 0.0 15.927550324092838 0.0 0.0 0.0 15.927550324092838" Properties=species:S:1:pos:R:3:forces:R:3 energy=-2376.460168067306 pbc="T T T"
W        0.00185952       0.00185952       0.00185952       0.00280208       0.00280208       0.00280208
W        1.59870914       1.59870914       1.59870914       0.00236422       0.00236422       0.00236422
W        0.00414404       0.00414404       3.18688045       0.00351337       0.00351337       0.00422320
W        1.60248542       1.60248542       4.78213311       0.00072136       0.00072136       0.00424943
W        0.00428755       0.00428755       6.37158340       0.00233078       0.00233078       0.00379259
W        1.59943620       1.59943620       7.96590995       0.00072792       0.00072792       0.00148054
W        0.00157230       0.00157230       9.55707277       0.00201816       0.00201816       0.00333537
W        1.59494461       1.59494461      11.15177392       0.00154626       0.00154626       0.00483418
W        0.00051594       0.00051594      12.74327389       0.00140695       0.00140695       0.00421965
W        1.59480232       1.59480232      14.33865952       0.00397372       0.00397372       0.00361130
W        0.00414404       3.18688045       0.00414404       0.00351337       0.00422320       0.00351337
W        1.60248542       4.78213311       1.60248542       0.00072136       0.00424943       0.00072136
W        0.00992129       3.19061442       3.19061442      -0.00151314       0.00294283       0.00294283
W        1.61262717       4.78964379       4.78964379       0.00232656      -0.00394341      -0.00394341
W        0.01098986       3.19103212       6.37377460       0.00005657       0.00100868       0.00427117
W        1.60453610       4.78619429       7.96910367       0.00192440      -0.00083883       0.00426740
W        0.00446230       3.18730387       9.55828762       0.00382267      -0.00015589       0.00459534
W        1.59544644       4.77886516      11.15480767       0.01052435       0.00640205      -0.00136797
W        0.00135156       3.18594301      12.74471402       0.00499514       0.00173692       0.00365126
W        1.59555336       4.77922655      14.34141394       0.00593061       0.00297279      -0.00013845
W        0.00428755       6.37158340       0.00428755       0.00233078       0.00379259       0.00233078
W        1.59943620       7.96590995       1.59943620       0.00072792       0.00148054       0.00072792
W        0.01098986       6.37377460       3.19103212       0.00005657       0.00427117       0.00100868
W        1.60453610       7.96910367       4.78619429       0.00192440       0.00426740      -0.00083883
W        0.01345171       6.37533921       6.37533921      -0.00448077       0.00195309       0.00195309
W        1.58995221       7.97028541       7.97028541       0.03915797      -0.00293898      -0.00293898
W        0.00204637       6.37172208       9.55988452       0.00827486       0.00276523       0.00343332
W        1.58970556       7.96424781      11.15481551       0.01462752       0.00737286      -0.00263898
W       -0.00053038       6.37085807      12.74551009       0.00992559       0.00050994       0.00162936
W        1.59324439       7.96442548      14.34007386       0.00533916       0.00201608      -0.00043337
W        0.00157230       9.55707277       0.00157230       0.00201816       0.00333537       0.00201816
W        1.59494461      11.15177392       1.59494461       0.00154626       0.00483418       0.00154626
W        0.00446230       9.55828762       3.18730387       0.00382267       0.00459534      -0.00015589