249
Lattice="15.927550323978927 0.0 0.0 0.0 15.927550323978927 0.0 0.0 0.0 15.927550323978927" Properties=species:S:1:pos:R:3:forces:R:3 energy=-2376.544795434139 pbc="T T T"
W       -0.00000000      -0.00000000      -0.00000000       0.00000000       0.00000000       0.00000000
W        1.59343860       1.59343860       1.59343860       0.00019375       0.00019375       0.00019375
W       -0.00000000      -0.00000000       3.18593357      -0.00000000       0.00000000       0.00044494
W        1.59378527       1.59378527       4.77879140       0.00000398       0.00000398       0.00029510
W       -0.00000000      -0.00000000       6.37128900      -0.00000000      -0.00000000       0.00055395
W        1.59376918       1.59376918       7.96377516       0.00017672       0.00017672      -0.00000000
W       -0.00000000      -0.00000000       9.55626132       0.00000000      -0.00000000      -0.00055395
W        1.59378527       1.59378527      11.14875893       0.00000398       0.00000398      -0.00029510
W       -0.00000000      -0.00000000      12.74161676       0.00000000      -0.00000000      -0.00044494
W        1.59343860       1.59343860      14.33411173       0.00019375       0.00019375      -0.00019375
W       -0.00000000       3.18593357      -0.00000000       0.00000000       0.00044494      -0.00000000
W        1.59378527       4.77879140       1.59378527       0.00000398       0.00029510       0.00000398
W       -0.00000000       3.18649061       3.18649061       0.00000000       0.00006488       0.00006488
W        1.59526346       4.77974504       4.77974504       0.00011651       0.00000230       0.00000230
W       -0.00000000       3.18663764       6.37144275      -0.00000000      -0.00026721       0.00000824
W        1.59499305       4.78015289       7.96377516       0.00042031       0.00007796       0.00000000
W       -0.00000000       3.18663764       9.55610757      -0.00000000      -0.00026721      -0.00000824
W        1.59526346       4.77974504      11.14780529       0.00011651       0.00000230      -0.00000230
W       -0.00000000       3.18649061      12.74105971       0.00000000       0.00006488      -0.00006488
W        1.59378527       4.77879140      14.33376506       0.00000398       0.00029510      -0.00000398
W       -0.00000000       6.37128900      -0.00000000      -0.00000000       0.00055395      -0.00000000
W        1.59376918       7.96377516       1.59376918       0.00017672       0.00000000       0.00017672
W       -0.00000000       6.37144275       3.18663764      -0.00000000       0.00000824      -0.00026721
W        1.59499305       7.96377516       4.78015289       0.00042031       0.00000000       0.00007796
W       -0.00000000       6.37145525       6.37145525      -0.00000000       0.00015561       0.00015561
W        1.59293128       7.96377516       7.96377516       0.00062140      -0.00000000      -0.00000000
W       -0.00000000       6.37145525       9.55609508      -0.00000000       0.00015561      -0.00015561
W        1.59499305       7.96377516      11.14739743       0.00042031       0.00000000      -0.00007796
W       -0.00000000       6.37144275      12.74091268      -0.00000000       0.00000824       0.00026721
W        1.59376918       7.96377516      14.33378114       0.00017672      -0.00000000      -0.00017672
W       -0.00000000       9.55626132      -0.00000000      -0.00000000      -0.00055395      -0.00000000
W        1.59378527      11.14875893       1.59378527       0.00000398      -0.00029510       0.00000398
W       -0.00000000       9.55610757       3.18663764      -0.00000000      -0.00000824      -0.00026721
W        1.59526346      11.14780529       4.77974504       0.00011651      -0.00000230       0.00000230
W       -0.00000000       9.55609508       6.37145525      -0.00000000      -0.00015561       0.00015561
W        1.59499305      11.14739743       7.96377516       0.00042031      -0.00007796       0.00000000
W       -0.00000000       9.55609508       9.55609508      -0.00000000      -0.00015561      -0.00015561
W        1.59526346      11.14780529      11.14780529       0.00011651      -0.00000230      -0.00000230
W       -0.00000000       9.55610757      12.74091268      -0.00000000      -0.00000824       0.00026721
W        1.59378527      11.14875893      14.33376506       0.00000398      -0.00029510      -0.00000398
W       -0.00000000      12.74161676      -0.00000000      -0.00000000      -0.00044494      -0.00000000
W        1.59343860      14.33411173       1.59343860       0.00019375      -0.00019375       0.00019375
W        0.00000000      12.74105971       3.18649061      -0.00000000      -0.00006488       0.00006488
W        1.59378527      14.33376506       4.77879140       0.00000398      -0.00000398       0.00029510
W       -0.00000000      12.74091268       6.37144275      -0.00000000       0.00026721       0.00000824
W        1.59376918      14.33378114       7.96377516       0.00017672      -0.00017672       0.00000000
W       -0.00000000      12.74091268       9.55610757      -0.00000000       0.00026721      -0.00000824
W        1.59378527      14.33376506      11.14875893       0.00000398      -0.00000398      -0.00029510
W       -0.00000000      12.74105971      12.74105971      -0.00000000      -0.00006488      -0.00006488
W        1.59343860      14.33411173      14.33411173       0.00019375      -0.00019375      -0.00019375
W        3.18593357      -0.00000000      -0.00000000       0.00044494      -0.00000000       0.00000000
W        4.77879140       1.59378527       1.59378527       0.00029510       0.00000398       0.00000398
W        3.18649061       0.00000000       3.18649061       0.00006488      -0.00000000       0.00006488
W        4.77974504       1.59526346       4.77974504       0.00000230       0.00011651       0.00000230
W        3.18663764      -0.00000000       6.37144275      -0.00026721      -0.00000000       0.00000824
W        4.78015289       1.59499305       7.96377516       0.00007796       0.00042031       0.00000000
W        3.18663764      -0.00000000       9.55610757      -0.00026721      -0.00000000      -0.00000824
W        4.77974504       1.59526346      11.14780529       0.00000230       0.00011651      -0.00000230
W        3.18649061       0.00000000      12.74105971       0.00006488      -0.00000000      -0.00006488
W        4.77879140       1.59378527      14.33376506       0.00029510       0.00000398      -0.00000398
W        3.18649061       3.18649061       0.00000000       0.00006488       0.00006488      -0.00000000
W        4.77974504       4.77974504       1.59526346       0.00000230       0.00000230       0.00011651
W        3.18819031       3.18819031       3.18819031      -0.00019530      -0.00019530      -0.00019530
W        4.78910806       4.78910806       4.78910806       0.00001861       0.00001861       0.00001861
W        3.18906861       3.18906861       6.37152701      -0.00016780      -0.00016780       0.00007874
W        4.78201845       4.78201845       7.96377516      -0.00041150      -0.00041150       0.00000000
W        3.18906861       3.18906861       9.55602332      -0.00016780      -0.00016780      -0.00007874
W        4.78910806       4.78910806      11.13844227       0.00001861       0.00001861      -0.00001861
W        3.18819031       3.18819031      12.73936001      -0.00019530      -0.00019530       0.00019530
W        4.77974504       4.77974504      14.33228687       0.00000230       0.00000230      -0.00011651
W        3.18663764       6.37144275      -0.00000000      -0.00026721       0.00000824      -0.00000000
W        4.78015289       7.96377516       1.59499305       0.00007796       0.00000000       0.00042031
W        3.18906861       6.37152701       3.18906861      -0.00016780       0.00007874      -0.00016780
W        4.78201845       7.96377516       4.78201845      -0.00041150       0.00000000      -0.00041150
W        3.19099444       6.37387221       6.37387221      -0.00009385       0.00004424       0.00004424
W        4.79422731       7.96377516       7.96377516       0.00047438      -0.00000000       0.00000000
W        3.19099444       6.37387221       9.55367811      -0.00009385       0.00004424      -0.00004424
W        4.78201845       7.96377516      11.14553188      -0.00041150       0.00000000       0.00041150
W        3.18906861       6.37152701      12.73848172      -0.00016780       0.00007874       0.00016780
W        4.78015289       7.96377516      14.33255727       0.00007796      -0.00000000      -0.00042031
W        3.18663764       9.55610757      -0.00000000      -0.00026721      -0.00000824      -0.00000000
W        4.77974504      11.14780529       1.59526346       0.00000230      -0.00000230       0.00011651
W        3.18906861       9.55602332       3.18906861      -0.00016780      -0.00007874      -0.00016780
W        4.78910806      11.13844227       4.78910806       0.00001861      -0.00001861       0.00001861
W        3.19099444       9.55367811       6.37387221      -0.00009385      -0.00004424       0.00004424
W        4.78201845      11.14553188       7.96377516      -0.00041150       0.00041150       0.00000000
W        3.19099444       9.55367811       9.55367811      -0.00009385      -0.00004424      -0.00004424
W        4.78910806      11.13844227      11.13844227       0.00001861      -0.00001861      -0.00001861
W        3.18906861       9.55602332      12.73848172      -0.00016780      -0.00007874       0.00016780
W        4.77974504      11.14780529      14.33228687       0.00000230      -0.00000230      -0.00011651
W        3.18649061      12.74105971      -0.00000000       0.00006488      -0.00006488      -0.00000000
W        4.77879140      14.33376506       1.59378527       0.00029510      -0.00000398       0.00000398
W        3.18819031      12.73936001       3.18819031      -0.00019530       0.00019530      -0.00019530
W        4.77974504      14.33228687       4.77974504       0.00000230      -0.00011651       0.00000230
W        3.18906861      12.73848172       6.37152701      -0.00016780       0.00016780       0.00007874
W        4.78015289      14.33255727       7.96377516       0.00007796      -0.00042031       0.00000000
W        3.18906861      12.73848172       9.55602332      -0.00016780       0.00016780      -0.00007874
W        4.77974504      14.33228687      11.14780529       0.00000230      -0.00011651      -0.00000230
W        3.18819031      12.73936001      12.73936001      -0.00019530       0.00019530       0.00019530
W        4.77879140      14.33376506      14.33376506       0.00029510      -0.00000398      -0.00000398
W        6.37128900      -0.00000000      -0.00000000       0.00055395      -0.00000000      -0.00000000
W        7.96377516       1.59376918       1.59376918       0.00000000       0.00017672       0.00017672
W        6.37144275      -0.00000000       3.18663764       0.00000824      -0.00000000      -0.00026721
W        7.96377516       1.59499305       4.78015289       0.00000000       0.00042031       0.00007796
W        6.37145525      -0.00000000       6.37145525       0.00015561      -0.00000000       0.00015561
W        7.96377516       1.59293128       7.96377516      -0.00000000       0.00062140       0.00000000
W        6.37145525      -0.00000000       9.55609508       0.00015561      -0.00000000      -0.00015561
W        7.96377516       1.59499305      11.14739743       0.00000000       0.00042031      -0.00007796
W        6.37144275      -0.00000000      12.74091268       0.00000824      -0.00000000       0.00026721
W        7.96377516       1.59376918      14.33378114       0.00000000       0.00017672      -0.00017672
W        6.37144275       3.18663764      -0.00000000       0.00000824      -0.00026721      -0.00000000
W        7.96377516       4.78015289       1.59499305       0.00000000       0.00007796       0.00042031
W        6.37152701       3.18906861       3.18906861       0.00007874      -0.00016780      -0.00016780
W        7.96377516       4.78201845       4.78201845       0.00000000      -0.00041150      -0.00041150
W        6.37387221       3.19099444       6.37387221       0.00004424      -0.00009385       0.00004424
W        7.96377516       4.79422731       7.96377516       0.00000000       0.00047438       0.00000000
W        6.37387221       3.19099444       9.55367811       0.00004424      -0.00009385      -0.00004424
W        7.96377516       4.78201845      11.14553188       0.00000000      -0.00041150       0.00041150
W        6.37152701       3.18906861      12.73848172       0.00007874      -0.00016780       0.00016780
W        7.96377516       4.78015289      14.33255727       0.00000000       0.00007796      -0.00042031
W        6.37145525       6.37145525      -0.00000000       0.00015561       0.00015561      -0.00000000
W        7.96377516       7.96377516       1.59293128      -0.00000000       0.00000000       0.00062140
W        6.37387221       6.37387221       3.19099444       0.00004424       0.00004424      -0.00009385
W        7.96377516       7.96377516       4.79422731      -0.00000000       0.00000000       0.00047438
W        6.39103919       6.39103919       6.39103919       0.00025123       0.00025123       0.00025123
W        6.39103919       6.39103919       9.53651113       0.00025123       0.00025123      -0.00025123
W        7.96377516       7.96377516      11.13332302       0.00000000      -0.00000000      -0.00047438
W        6.37387221       6.37387221      12.73655589       0.00004424       0.00004424       0.00009385
W        7.96377516       7.96377516      14.33461904      -0.00000000      -0.00000000      -0.00062140
W        6.37145525       9.55609508      -0.00000000       0.00015561      -0.00015561      -0.00000000
W        7.96377516      11.14739743       1.59499305       0.00000000      -0.00007796       0.00042031
W        6.37387221       9.55367811       3.19099444       0.00004424      -0.00004424      -0.00009385
W        7.96377516      11.14553188       4.78201845       0.00000000       0.00041150      -0.00041150
W        6.39103919       9.53651113       6.39103919       0.00025123      -0.00025123       0.00025123
W        7.96377516      11.13332302       7.96377516       0.00000000      -0.00047438       0.00000000
W        6.39103919       9.53651113       9.53651113       0.00025123      -0.00025123      -0.00025123
W        7.96377516      11.14553188      11.14553188       0.00000000       0.00041150       0.00041150
W        6.37387221       9.55367811      12.73655589       0.00004424      -0.00004424       0.00009385
W        7.96377516      11.14739743      14.33255727       0.00000000      -0.00007796      -0.00042031
W        6.37144275      12.74091268      -0.00000000       0.00000824       0.00026721       0.00000000
W        7.96377516      14.33378114       1.59376918       0.00000000      -0.00017672       0.00017672
W        6.37152701      12.73848172       3.18906861       0.00007874       0.00016780      -0.00016780
W        7.96377516      14.33255727       4.78015289       0.00000000      -0.00042031       0.00007796
W        6.37387221      12.73655589       6.37387221       0.00004424       0.00009385       0.00004424
W        7.96377516      14.33461904       7.96377516      -0.00000000      -0.00062140      -0.00000000
W        6.37387221      12.73655589       9.55367811       0.00004424       0.00009385      -0.00004424
W        7.96377516      14.33255727      11.14739743       0.00000000      -0.00042031      -0.00007796
W        6.37152701      12.73848172      12.73848172       0.00007874       0.00016780       0.00016780
W        7.96377516      14.33378114      14.33378114       0.00000000      -0.00017672      -0.00017672
W        9.55626132      -0.00000000      -0.00000000      -0.00055395      -0.00000000      -0.00000000
W       11.14875893       1.59378527       1.59378527      -0.00029510       0.00000398       0.00000398
W        9.55610757      -0.00000000       3.18663764      -0.00000824      -0.00000000      -0.00026721
W       11.14780529       1.59526346       4.77974504      -0.00000230       0.00011651       0.00000230
W        9.55609508      -0.00000000       6.37145525      -0.00015561      -0.00000000       0.00015561
W       11.14739743       1.59499305       7.96377516      -0.00007796       0.00042031       0.00000000
W        9.55609508      -0.00000000       9.55609508      -0.00015561      -0.00000000      -0.00015561
W       11.14780529       1.59526346      11.14780529      -0.00000230       0.00011651      -0.00000230
W        9.55610757      -0.00000000      12.74091268      -0.00000824      -0.00000000       0.00026721
W       11.14875893       1.59378527      14.33376506      -0.00029510       0.00000398      -0.00000398
W        9.55610757       3.18663764      -0.00000000      -0.00000824      -0.00026721      -0.00000000
W       11.14780529       4.77974504       1.59526346      -0.00000230       0.00000230       0.00011651
W        9.55602332       3.18906861       3.18906861      -0.00007874      -0.00016780      -0.00016780
W       11.13844227       4.78910806       4.78910806      -0.00001861       0.00001861       0.00001861
W        9.55367811       3.19099444       6.37387221      -0.00004424      -0.00009385       0.00004424
W       11.14553188       4.78201845       7.96377516       0.00041150      -0.00041150       0.00000000
W        9.55367811       3.19099444       9.55367811      -0.00004424      -0.00009385      -0.00004424
W       11.13844227       4.78910806      11.13844227      -0.00001861       0.00001861      -0.00001861
W        9.55602332       3.18906861      12.73848172      -0.00007874      -0.00016780       0.00016780
W       11.14780529       4.77974504      14.33228687      -0.00000230       0.00000230      -0.00011651
W        9.55609508       6.37145525      -0.00000000      -0.00015561       0.00015561      -0.00000000
W       11.14739743       7.96377516       1.59499305      -0.00007796       0.00000000       0.00042031
W        9.55367811       6.37387221       3.19099444      -0.00004424       0.00004424      -0.00009385
W       11.14553188       7.96377516       4.78201845       0.00041150       0.00000000      -0.00041150
W        9.53651113       6.39103919       6.39103919      -0.00025123       0.00025123       0.00025123
W       11.13332302       7.96377516       7.96377516      -0.00047438      -0.00000000       0.00000000
W        9.53651113       6.39103919       9.53651113      -0.00025123       0.00025123      -0.00025123
W       11.14553188       7.96377516      11.14553188       0.00041150       0.00000000       0.00041150
W        9.55367811       6.37387221      12.73655589      -0.00004424       0.00004424       0.00009385
W       11.14739743       7.96377516      14.33255727      -0.00007796       0.00000000      -0.00042031
W        9.55609508       9.55609508      -0.00000000      -0.00015561      -0.00015561      -0.00000000
W       11.14780529      11.14780529       1.59526346      -0.00000230      -0.00000230       0.00011651
W        9.55367811       9.55367811       3.19099444      -0.00004424      -0.00004424      -0.00009385
W       11.13844227      11.13844227       4.78910806      -0.00001861      -0.00001861       0.00001861
W        9.53651113       9.53651113       6.39103919      -0.00025123      -0.00025123       0.00025123
W       11.14553188      11.14553188       7.96377516       0.00041150       0.00041150       0.00000000
W        9.53651113       9.53651113       9.53651113      -0.00025123      -0.00025123      -0.00025123
W       11.13844227      11.13844227      11.13844227      -0.00001861      -0.00001861      -0.00001861
W        9.55367811       9.55367811      12.73655589      -0.00004424      -0.00004424       0.00009385
W       11.14780529      11.14780529      14.33228687      -0.00000230      -0.00000230      -0.00011651
W        9.55610757      12.74091268      -0.00000000      -0.00000824       0.00026721       0.00000000
W       11.14875893      14.33376506       1.59378527      -0.00029510      -0.00000398       0.00000398
W        9.55602332      12.73848172       3.18906861      -0.00007874       0.00016780      -0.00016780
W       11.14780529      14.33228687       4.77974504      -0.00000230      -0.00011651       0.00000230
W        9.55367811      12.73655589       6.37387221      -0.00004424       0.00009385       0.00004424
W       11.14739743      14.33255727       7.96377516      -0.00007796      -0.00042031       0.00000000
W        9.55367811      12.73655589       9.55367811      -0.00004424       0.00009385      -0.00004424
W       11.14780529      14.33228687      11.14780529      -0.00000230      -0.00011651      -0.00000230
W        9.55602332      12.73848172      12.73848172      -0.00007874       0.00016780       0.00016780
W       11.14875893      14.33376506      14.33376506      -0.00029510      -0.00000398      -0.00000398
W       12.74161676      -0.00000000      -0.00000000      -0.00044494      -0.00000000       0.00000000
W       14.33411173       1.59343860       1.59343860      -0.00019375       0.00019375       0.00019375
W       12.74105971      -0.00000000       3.18649061      -0.00006488      -0.00000000       0.00006488
W       14.33376506       1.59378527       4.77879140      -0.00000398       0.00000398       0.00029510
W       12.74091268      -0.00000000       6.37144275       0.00026721      -0.00000000       0.00000824
W       14.33378114       1.59376918       7.96377516      -0.00017672       0.00017672       0.00000000
W       12.74091268      -0.00000000       9.55610757       0.00026721      -0.00000000      -0.00000824
W       14.33376506       1.59378527      11.14875893      -0.00000398       0.00000398      -0.00029510
W       12.74105971      -0.00000000      12.74105971      -0.00006488      -0.00000000      -0.00006488
W       14.33411173       1.59343860      14.33411173      -0.00019375       0.00019375      -0.00019375
W       12.74105971       3.18649061       0.00000000      -0.00006488       0.00006488      -0.00000000
W       14.33376506       4.77879140       1.59378527      -0.00000398       0.00029510       0.00000398
W       12.73936001       3.18819031       3.18819031       0.00019530      -0.00019530      -0.00019530
W       14.33228687       4.77974504       4.77974504      -0.00011651       0.00000230       0.00000230
W       12.73848172       3.18906861       6.37152701       0.00016780      -0.00016780       0.00007874
W       14.33255727       4.78015289       7.96377516      -0.00042031       0.00007796       0.00000000
W       12.73848172       3.18906861       9.55602332       0.00016780      -0.00016780      -0.00007874
W       14.33228687       4.77974504      11.14780529      -0.00011651       0.00000230      -0.00000230
W       12.73936001       3.18819031      12.73936001       0.00019530      -0.00019530       0.00019530
W       14.33376506       4.77879140      14.33376506      -0.00000398       0.00029510      -0.00000398
W       12.74091268       6.37144275      -0.00000000       0.00026721       0.00000824      -0.00000000
W       14.33378114       7.96377516       1.59376918      -0.00017672       0.00000000       0.00017672
W       12.73848172       6.37152701       3.18906861       0.00016780       0.00007874      -0.00016780
W       14.33255727       7.96377516       4.78015289      -0.00042031       0.00000000       0.00007796
W       12.73655589       6.37387221       6.37387221       0.00009385       0.00004424       0.00004424
W       14.33461904       7.96377516       7.96377516      -0.00062140      -0.00000000      -0.00000000
W       12.73655589       6.37387221       9.55367811       0.00009385       0.00004424      -0.00004424
W       14.33255727       7.96377516      11.14739743      -0.00042031       0.00000000      -0.00007796
W       12.73848172       6.37152701      12.73848172       0.00016780       0.00007874       0.00016780
W       14.33378114       7.96377516      14.33378114      -0.00017672      -0.00000000      -0.00017672
W       12.74091268       9.55610757      -0.00000000       0.00026721      -0.00000824      -0.00000000
W       14.33376506      11.14875893       1.59378527      -0.00000398      -0.00029510       0.00000398
W       12.73848172       9.55602332       3.18906861       0.00016780      -0.00007874      -0.00016780
W       14.33228687      11.14780529       4.77974504      -0.00011651      -0.00000230       0.00000230
W       12.73655589       9.55367811       6.37387221       0.00009385      -0.00004424       0.00004424
W       14.33255727      11.14739743       7.96377516      -0.00042031      -0.00007796       0.00000000
W       12.73655589       9.55367811       9.55367811       0.00009385      -0.00004424      -0.00004424
W       14.33228687      11.14780529      11.14780529      -0.00011651      -0.00000230      -0.00000230
W       12.73848172       9.55602332      12.73848172       0.00016780      -0.00007874       0.00016780
W       14.33376506      11.14875893      14.33376506      -0.00000398      -0.00029510      -0.00000398
W       12.74105971      12.74105971      -0.00000000      -0.00006488      -0.00006488      -0.00000000
W       14.33411173      14.33411173       1.59343860      -0.00019375      -0.00019375       0.00019375
W       12.73936001      12.73936001       3.18819031       0.00019530       0.00019530      -0.00019530
W       14.33376506      14.33376506       4.77879140      -0.00000398      -0.00000398       0.00029510
W       12.73848172      12.73848172       6.37152701       0.00016780       0.00016780       0.00007874
W       14.33378114      14.33378114       7.96377516      -0.00017672      -0.00017672      -0.00000000
W       12.73848172      12.73848172       9.55602332       0.00016780       0.00016780      -0.00007874
W       14.33376506      14.33376506      11.14875893      -0.00000398      -0.00000398      -0.00029510
W       12.73936001      12.73936001      12.73936001       0.00019530       0.00019530       0.00019530
W       14.33411173      14.33411173      14.33411173      -0.00019375      -0.00019375      -0.00019375
249
Lattice="15.927550323978927 0.0 0.0 0.0 15.927550323978927 0.0 0.0 0.0 15.927550323978927" Properties=species:S:1:pos:R:3:forces:R:3 energy=-2376.3439488264316 pbc="T T T"
W        0.00125181       0.00125181       0.00125181       0.00267789       0.00267789       0.00267789
W        1.59731377       1.59731377       1.59731377       0.00380578       0.00380578       0.00380578
W        0.00285913       0.00285913       3.18645582       0.00465348       0.00465348       0.00507249
W        1.60047931       1.60047931       4.78083242       0.00480097       0.00480097       0.00732583
W        0.00292508       0.00292508       6.37120616       0.00432038       0.00432038       0.00410031
W        1.59813181       1.59813181       7.96451559       0.00382695       0.00382695       0.00202572
W        0.00087983       0.00087983       9.55646784       0.00315561       0.00315561       0.00174311
W        1.59446355       1.59446355      11.15017009       0.00259432       0.00259432       0.00415885
W        0.00025424       0.00025424      12.74261867       0.00182947       0.00182947       0.00139475
W        1.59422167       1.59422167      14.33721683       0.00469616       0.00469616       0.00338927
W        0.00285913       3.18645582       0.00285913       0.00465348       0.00507249       0.00465348
W        1.60047931       4.78083242       1.60047931       0.00480097       0.00732583       0.00480097
W        0.00743861       3.18948911       3.18948911       0.00296404       0.00510948       0.00510948
W        1.61016800       4.78788435       4.78788435       0.00697049       0.00078905       0.00078905
W        0.00841000       3.19011100       6.37276422       0.00331210       0.00347329       0.00448463
W        1.60317962       4.78523012       7.96699334       0.00929939       0.00268184       0.00789725
W        0.00321569       3.18707644       9.55710461       0.00324673       0.00206442       0.00263922
W        1.59513112       4.77881625      11.15236457       0.00967064       0.00504064      -0.00039898
W        0.00087397       3.18592060      12.74342247       0.00365351       0.00303976       0.00243820
W        1.59501134       4.77891352      14.33913328       0.00521103       0.00426162       0.00185295
W        0.00292508       6.37120616       0.00292508       0.00432038       0.00410031       0.00432038
W        1.59813181       7.96451559       1.59813181       0.00382695       0.00202572       0.00382695
W        0.00841000       6.37276422       3.19011100       0.00331210       0.00448463       0.00347329
W        1.60317962       7.96699334       4.78523012       0.00929939       0.00789725       0.00268184
W        0.01084126       6.37444053       6.37444053       0.00021868       0.00260969       0.00260969
W        1.59019033       7.96870968       7.96870968       0.04120892       0.00082065       0.00082065
W        0.00100380       6.37162078       9.55854265       0.00723830       0.00153822       0.00184594
W        1.59048965       7.96384111      11.15259782       0.01415796       0.00576602      -0.00242070
W       -0.00072060       6.37102001      12.74387219       0.00616119       0.00023059       0.00147680
W        1.59329129       7.96403550      14.33807759       0.00436220       0.00079264       0.00123164
W        0.00087983       9.55646784       0.00087983       0.00315561       0.00174311       0.00315561
W        1.59446355      11.15017009       1.59446355       0.00259432       0.00415885       0.00259432
W        0.00321569       9.55710461       3.18707644       0.00324673       0.00263922       0.00206442