249
Lattice="15.927550324233103 0.0 0.0 0.0 15.927550324233103 0.0 0.0 0.0 15.927550324233103" Properties=species:S:1:pos:R:3:forces:R:3 energy=-2376.3814167745663 pbc="T T T"
W        0.00000000       0.00000000       0.00000000       0.00000000       0.00000000       0.00000000
W        1.59334254       1.59334254       1.59334254      -0.00005052      -0.00005052      -0.00005052
W        0.00000000       0.00000000       3.18589775       0.00000000       0.00000000       0.00044736
W        1.59362777       1.59362777       4.77876737      -0.00017747      -0.00017747       0.00016969
W       -0.00000000       0.00000000       6.37124913      -0.00000000      -0.00000000       0.00032878
W        1.59363962       1.59363962       7.96377516      -0.00011869      -0.00011869      -0.00000000
W        0.00000000       0.00000000       9.55630119      -0.00000000      -0.00000000      -0.00032878
W        1.59362777       1.59362777      11.14878295      -0.00017747      -0.00017747      -0.00016969
W        0.00000000       0.00000000      12.74165257       0.00000000       0.00000000      -0.00044736
W        1.59334254       1.59334254      14.33420779      -0.00005052      -0.00005052       0.00005052
W        0.00000000       3.18589775       0.00000000       0.00000000       0.00044736       0.00000000
W        1.59362777       4.77876737       1.59362777      -0.00017747       0.00016969      -0.00017747
W        0.00000000       3.18634261       3.18634261      -0.00000000       0.00010448       0.00010448
W        1.59476270       4.77959954       4.77959954      -0.00007681       0.00006591       0.00006591
W       -0.00000000       3.18656789       6.37144213      -0.00000000      -0.00009360      -0.00008059
W        1.59490718       4.77972255       7.96377516      -0.00007083       0.00005877      -0.00000000
W       -0.00000000       3.18656789       9.55610819      -0.00000000      -0.00009360       0.00008059
W        1.59476270       4.77959954      11.14795078      -0.00007681       0.00006591      -0.00006591
W       -0.00000000       3.18634261      12.74120772       0.00000000       0.00010448      -0.00010448
W        1.59362777       4.77876737      14.33392255      -0.00017747       0.00016969       0.00017747
W        0.00000000       6.37124913       0.00000000      -0.00000000       0.00032878      -0.00000000
W        1.59363962       7.96377516       1.59363962      -0.00011869      -0.00000000      -0.00011869
W       -0.00000000       6.37144213       3.18656789      -0.00000000      -0.00008059      -0.00009360
W        1.59490718       7.96377516       4.77972255      -0.00007083      -0.00000000       0.00005877
W        0.00000000       6.37182463       6.37182463      -0.00000000      -0.00012322      -0.00012322
W        1.59610306       7.96377516       7.96377516       0.00024046      -0.00000000      -0.00000000
W       -0.00000000       6.37182463       9.55572569      -0.00000000      -0.00012322       0.00012322
W        1.59490718       7.96377516      11.14782778      -0.00007083      -0.00000000      -0.00005877
W       -0.00000000       6.37144213      12.74098244      -0.00000000      -0.00008059       0.00009360
W        1.59363962       7.96377516      14.33391070      -0.00011869      -0.00000000       0.00011869
W        0.00000000       9.55630119       0.00000000      -0.00000000      -0.00032878      -0.00000000
W        1.59362777      11.14878295       1.59362777      -0.00017747      -0.00016969      -0.00017747
W       -0.00000000       9.55610819       3.18656789      -0.00000000       0.00008059      -0.00009360
W        1.59476270      11.14795078       4.77959954      -0.00007681      -0.00006591       0.00006591
W       -0.00000000       9.55572569       6.37182463      -0.00000000       0.00012322      -0.00012322
W        1.59490718      11.14782778       7.96377516      -0.00007083      -0.00005877      -0.00000000
W        0.00000000       9.55572569       9.55572569      -0.00000000       0.00012322       0.00012322
W        1.59476270      11.14795078      11.14795078      -0.00007681      -0.00006591      -0.00006591
W       -0.00000000       9.55610819      12.74098244      -0.00000000       0.00008059       0.00009360
W        1.59362777      11.14878295      14.33392255      -0.00017747      -0.00016969       0.00017747
W        0.00000000      12.74165257       0.00000000       0.00000000      -0.00044736       0.00000000
W        1.59334254      14.33420779       1.59334254      -0.00005052       0.00005052      -0.00005052
W       -0.00000000      12.74120772       3.18634261      -0.00000000      -0.00010448       0.00010448
W        1.59362777      14.33392255       4.77876737      -0.00017747       0.00017747       0.00016969
W       -0.00000000      12.74098244       6.37144213       0.00000000       0.00009360      -0.00008059
W        1.59363962      14.33391070       7.96377516      -0.00011869       0.00011869       0.00000000
W       -0.00000000      12.74098244       9.55610819      -0.00000000       0.00009360       0.00008059
W        1.59362777      14.33392255      11.14878295      -0.00017747       0.00017747      -0.00016969
W        0.00000000      12.74120772      12.74120772       0.00000000      -0.00010448      -0.00010448
W        1.59334254      14.33420779      14.33420779      -0.00005052       0.00005052       0.00005052
W        3.18589775       0.00000000       0.00000000       0.00044736       0.00000000       0.00000000
W        4.77876737       1.59362777       1.59362777       0.00016969      -0.00017747      -0.00017747
W        3.18634261       0.00000000       3.18634261       0.00010448       0.00000000       0.00010448
W        4.77959954       1.59476270       4.77959954       0.00006591      -0.00007681       0.00006591
W        3.18656789      -0.00000000       6.37144213      -0.00009360       0.00000000      -0.00008059
W        4.77972255       1.59490718       7.96377516       0.00005877      -0.00007083      -0.00000000
W        3.18656789      -0.00000000       9.55610819      -0.00009360      -0.00000000       0.00008059
W        4.77959954       1.59476270      11.14795078       0.00006591      -0.00007681      -0.00006591
W        3.18634261      -0.00000000      12.74120772       0.00010448       0.00000000      -0.00010448
W        4.77876737       1.59362777      14.33392255       0.00016969      -0.00017747       0.00017747
W        3.18634261       3.18634261       0.00000000       0.00010448       0.00010448       0.00000000
W        4.77959954       4.77959954       1.59476270       0.00006591       0.00006591      -0.00007681
W        3.18777260       3.18777260       3.18777260       0.00008726       0.00008726       0.00008726
W        4.78658416       4.78658416       4.78658416       0.00017709       0.00017709       0.00017709
W        3.18840073       3.18840073       6.37156465       0.00001647       0.00001647      -0.00017084
W        4.78489361       4.78489361       7.96377516      -0.00001871      -0.00001871       0.00000000
W        3.18840073       3.18840073       9.55598567       0.00001647       0.00001647       0.00017084
W        4.78658416       4.78658416      11.14096616       0.00017709       0.00017709      -0.00017709
W        3.18777260       3.18777260      12.73977772       0.00008726       0.00008726      -0.00008726
W        4.77959954       4.77959954      14.33278762       0.00006591       0.00006591       0.00007681
W        3.18656789       6.37144213      -0.00000000      -0.00009360      -0.00008059      -0.00000000
W        4.77972255       7.96377516       1.59490718       0.00005877      -0.00000000      -0.00007083
W        3.18840073       6.37156465       3.18840073       0.00001647      -0.00017084       0.00001647
W        4.78489361       7.96377516       4.78489361      -0.00001871       0.00000000      -0.00001871
W        3.19035168       6.37276079       6.37276079       0.00033326      -0.00017229      -0.00017229
W        4.80426771       7.96377516       7.96377516      -0.00023211      -0.00000000      -0.00000000
W        3.19035168       6.37276079       9.55478954       0.00033326      -0.00017229       0.00017229
W        4.78489361       7.96377516      11.14265672      -0.00001871       0.00000000       0.00001871
W        3.18840073       6.37156465      12.73914960       0.00001647      -0.00017084      -0.00001647
W        4.77972255       7.96377516      14.33264315       0.00005877      -0.00000000       0.00007083
W        3.18656789       9.55610819      -0.00000000      -0.00009360       0.00008059      -0.00000000
W        4.77959954      11.14795078       1.59476270       0.00006591      -0.00006591      -0.00007681
W        3.18840073       9.55598567       3.18840073       0.00001647       0.00017084       0.00001647
W        4.78658416      11.14096616       4.78658416       0.00017709      -0.00017709       0.00017709
W        3.19035168       9.55478954       6.37276079       0.00033326       0.00017229      -0.00017229
W        4.78489361      11.14265672       7.96377516      -0.00001871       0.00001871       0.00000000
W        3.19035168       9.55478954       9.55478954       0.00033326       0.00017229       0.00017229
W        4.78658416      11.14096616      11.14096616       0.00017709      -0.00017709      -0.00017709
W        3.18840073       9.55598567      12.73914960       0.00001647       0.00017084      -0.00001647
W        4.77959954      11.14795078      14.33278762       0.00006591      -0.00006591       0.00007681
W        3.18634261      12.74120772      -0.00000000       0.00010448      -0.00010448       0.00000000
W        4.77876737      14.33392255       1.59362777       0.00016969       0.00017747      -0.00017747
W        3.18777260      12.73977772       3.18777260       0.00008726      -0.00008726       0.00008726
W        4.77959954      14.33278762       4.77959954       0.00006591       0.00007681       0.00006591
W        3.18840073      12.73914960       6.37156465       0.00001647      -0.00001647      -0.00017084
W        4.77972255      14.33264315       7.96377516       0.00005877       0.00007083       0.00000000
W        3.18840073      12.73914960       9.55598567       0.00001647      -0.00001647       0.00017084
W        4.77959954      14.33278762      11.14795078       0.00006591       0.00007681      -0.00006591
W        3.18777260      12.73977772      12.73977772       0.00008726      -0.00008726      -0.00008726
W        4.77876737      14.33392255      14.33392255       0.00016969       0.00017747       0.00017747
W        6.37124913       0.00000000       0.00000000       0.00032878       0.00000000      -0.00000000
W        7.96377516       1.59363962       1.59363962      -0.00000000      -0.00011869      -0.00011869
W        6.37144213      -0.00000000       3.18656789      -0.00008059      -0.00000000      -0.00009360
W        7.96377516       1.59490718       4.77972255      -0.00000000      -0.00007083       0.00005877
W        6.37182463      -0.00000000       6.37182463      -0.00012322      -0.00000000      -0.00012322
W        7.96377516       1.59610306       7.96377516      -0.00000000       0.00024046      -0.00000000
W        6.37182463       0.00000000       9.55572569      -0.00012322      -0.00000000       0.00012322
W        7.96377516       1.59490718      11.14782778      -0.00000000      -0.00007083      -0.00005877
W        6.37144213      -0.00000000      12.74098244      -0.00008059       0.00000000       0.00009360
W        7.96377516       1.59363962      14.33391070      -0.00000000      -0.00011869       0.00011869
W        6.37144213       3.18656789       0.00000000      -0.00008059      -0.00009360      -0.00000000
W        7.96377516       4.77972255       1.59490718      -0.00000000       0.00005877      -0.00007083
W        6.37156465       3.18840073       3.18840073      -0.00017084       0.00001647       0.00001647
W        7.96377516       4.78489361       4.78489361       0.00000000      -0.00001871      -0.00001871
W        6.37276079       3.19035168       6.37276079      -0.00017229       0.00033326      -0.00017229
W        7.96377516       4.80426771       7.96377516      -0.00000000      -0.00023211      -0.00000000
W        6.37276079       3.19035168       9.55478954      -0.00017229       0.00033326       0.00017229
W        7.96377516       4.78489361      11.14265672      -0.00000000      -0.00001871       0.00001871
W        6.37156465       3.18840073      12.73914960      -0.00017084       0.00001647      -0.00001647
W        7.96377516       4.77972255      14.33264315      -0.00000000       0.00005877       0.00007083
W        6.37182463       6.37182463      -0.00000000      -0.00012322      -0.00012322      -0.00000000
W        7.96377516       7.96377516       1.59610306      -0.00000000      -0.00000000       0.00024046
W        6.37276079       6.37276079       3.19035168      -0.00017229      -0.00017229       0.00033326
W        7.96377516       7.96377516       4.80426771      -0.00000000      -0.00000000      -0.00023211
W        6.39779304       6.39779304       6.39779304      -0.00034645      -0.00034645      -0.00034645
W        6.39779304       6.39779304       9.52975728      -0.00034645      -0.00034645       0.00034645
W        7.96377516       7.96377516      11.12328261      -0.00000000      -0.00000000       0.00023211
W        6.37276079       6.37276079      12.73719865      -0.00017229      -0.00017229      -0.00033326
W        7.96377516       7.96377516      14.33144727      -0.00000000      -0.00000000      -0.00024046
W        6.37182463       9.55572569       0.00000000      -0.00012322       0.00012322      -0.00000000
W        7.96377516      11.14782778       1.59490718      -0.00000000      -0.00005877      -0.00007083
W        6.37276079       9.55478954       3.19035168      -0.00017229       0.00017229       0.00033326
W        7.96377516      11.14265672       4.78489361      -0.00000000       0.00001871      -0.00001871
W        6.39779304       9.52975728       6.39779304      -0.00034645       0.00034645      -0.00034645
W        7.96377516      11.12328261       7.96377516      -0.00000000       0.00023211       0.00000000
W        6.39779304       9.52975728       9.52975728      -0.00034645       0.00034645       0.00034645
W        7.96377516      11.14265672      11.14265672       0.00000000       0.00001871       0.00001871
W        6.37276079       9.55478954      12.73719865      -0.00017229       0.00017229      -0.00033326
W        7.96377516      11.14782778      14.33264315      -0.00000000      -0.00005877       0.00007083
W        6.37144213      12.74098244      -0.00000000      -0.00008059       0.00009360      -0.00000000
W        7.96377516      14.33391070       1.59363962      -0.00000000       0.00011869      -0.00011869
W        6.37156465      12.73914960       3.18840073      -0.00017084      -0.00001647       0.00001647
W        7.96377516      14.33264315       4.77972255      -0.00000000       0.00007083       0.00005877
W        6.37276079      12.73719865       6.37276079      -0.00017229      -0.00033326      -0.00017229
W        7.96377516      14.33144727       7.96377516      -0.00000000      -0.00024046      -0.00000000
W        6.37276079      12.73719865       9.55478954      -0.00017229      -0.00033326       0.00017229
W        7.96377516      14.33264315      11.14782778      -0.00000000       0.00007083      -0.00005877
W        6.37156465      12.73914960      12.73914960      -0.00017084      -0.00001647      -0.00001647
W        7.96377516      14.33391070      14.33391070      -0.00000000       0.00011869       0.00011869
W        9.55630119       0.00000000       0.00000000      -0.00032878       0.00000000      -0.00000000
W       11.14878295       1.59362777       1.59362777      -0.00016969      -0.00017747      -0.00017747
W        9.55610819      -0.00000000       3.18656789       0.00008059      -0.00000000      -0.00009360
W       11.14795078       1.59476270       4.77959954      -0.00006591      -0.00007681       0.00006591
W        9.55572569       0.00000000       6.37182463       0.00012322      -0.00000000      -0.00012322
W       11.14782778       1.59490718       7.96377516      -0.00005877      -0.00007083      -0.00000000
W        9.55572569       0.00000000       9.55572569       0.00012322      -0.00000000       0.00012322
W       11.14795078       1.59476270      11.14795078      -0.00006591      -0.00007681      -0.00006591
W        9.55610819       0.00000000      12.74098244       0.00008059       0.00000000       0.00009360
W       11.14878295       1.59362777      14.33392255      -0.00016969      -0.00017747       0.00017747
W        9.55610819       3.18656789      -0.00000000       0.00008059      -0.00009360      -0.00000000
W       11.14795078       4.77959954       1.59476270      -0.00006591       0.00006591      -0.00007681
W        9.55598567       3.18840073       3.18840073       0.00017084       0.00001647       0.00001647
W       11.14096616       4.78658416       4.78658416      -0.00017709       0.00017709       0.00017709
W        9.55478954       3.19035168       6.37276079       0.00017229       0.00033326      -0.00017229
W       11.14265672       4.78489361       7.96377516       0.00001871      -0.00001871       0.00000000
W        9.55478954       3.19035168       9.55478954       0.00017229       0.00033326       0.00017229
W       11.14096616       4.78658416      11.14096616      -0.00017709       0.00017709      -0.00017709
W        9.55598567       3.18840073      12.73914960       0.00017084       0.00001647      -0.00001647
W       11.14795078       4.77959954      14.33278762      -0.00006591       0.00006591       0.00007681
W        9.55572569       6.37182463      -0.00000000       0.00012322      -0.00012322      -0.00000000
W       11.14782778       7.96377516       1.59490718      -0.00005877      -0.00000000      -0.00007083
W        9.55478954       6.37276079       3.19035168       0.00017229      -0.00017229       0.00033326
W       11.14265672       7.96377516       4.78489361       0.00001871       0.00000000      -0.00001871
W        9.52975728       6.39779304       6.39779304       0.00034645      -0.00034645      -0.00034645
W       11.12328261       7.96377516       7.96377516       0.00023211       0.00000000       0.00000000
W        9.52975728       6.39779304       9.52975728       0.00034645      -0.00034645       0.00034645
W       11.14265672       7.96377516      11.14265672       0.00001871       0.00000000       0.00001871
W        9.55478954       6.37276079      12.73719865       0.00017229      -0.00017229      -0.00033326
W       11.14782778       7.96377516      14.33264315      -0.00005877      -0.00000000       0.00007083
W        9.55572569       9.55572569       0.00000000       0.00012322       0.00012322      -0.00000000
W       11.14795078      11.14795078       1.59476270      -0.00006591      -0.00006591      -0.00007681
W        9.55478954       9.55478954       3.19035168       0.00017229       0.00017229       0.00033326
W       11.14096616      11.14096616       4.78658416      -0.00017709      -0.00017709       0.00017709
W        9.52975728       9.52975728       6.39779304       0.00034645       0.00034645      -0.00034645
W       11.14265672      11.14265672       7.96377516       0.00001871       0.00001871       0.00000000
W        9.52975728       9.52975728       9.52975728       0.00034645       0.00034645       0.00034645
W       11.14096616      11.14096616      11.14096616      -0.00017709      -0.00017709      -0.00017709
W        9.55478954       9.55478954      12.73719865       0.00017229       0.00017229      -0.00033326
W       11.14795078      11.14795078      14.33278762      -0.00006591      -0.00006591       0.00007681
W        9.55610819      12.74098244       0.00000000       0.00008059       0.00009360      -0.00000000
W       11.14878295      14.33392255       1.59362777      -0.00016969       0.00017747      -0.00017747
W        9.55598567      12.73914960       3.18840073       0.00017084      -0.00001647       0.00001647
W       11.14795078      14.33278762       4.77959954      -0.00006591       0.00007681       0.00006591
W        9.55478954      12.73719865       6.37276079       0.00017229      -0.00033326      -0.00017229
W       11.14782778      14.33264315       7.96377516      -0.00005877       0.00007083      -0.00000000
W        9.55478954      12.73719865       9.55478954       0.00017229      -0.00033326       0.00017229
W       11.14795078      14.33278762      11.14795078      -0.00006591       0.00007681      -0.00006591
W        9.55598567      12.73914960      12.73914960       0.00017084      -0.00001647      -0.00001647
W       11.14878295      14.33392255      14.33392255      -0.00016969       0.00017747       0.00017747
W       12.74165257       0.00000000       0.00000000      -0.00044736       0.00000000       0.00000000
W       14.33420779       1.59334254       1.59334254       0.00005052      -0.00005052      -0.00005052
W       12.74120772      -0.00000000       3.18634261      -0.00010448       0.00000000       0.00010448
W       14.33392255       1.59362777       4.77876737       0.00017747      -0.00017747       0.00016969
W       12.74098244      -0.00000000       6.37144213       0.00009360      -0.00000000      -0.00008059
W       14.33391070       1.59363962       7.96377516       0.00011869      -0.00011869       0.00000000
W       12.74098244      -0.00000000       9.55610819       0.00009360      -0.00000000       0.00008059
W       14.33392255       1.59362777      11.14878295       0.00017747      -0.00017747      -0.00016969
W       12.74120772       0.00000000      12.74120772      -0.00010448       0.00000000      -0.00010448
W       14.33420779       1.59334254      14.33420779       0.00005052      -0.00005052       0.00005052
W       12.74120772       3.18634261      -0.00000000      -0.00010448       0.00010448       0.00000000
W       14.33392255       4.77876737       1.59362777       0.00017747       0.00016969      -0.00017747
W       12.73977772       3.18777260       3.18777260      -0.00008726       0.00008726       0.00008726
W       14.33278762       4.77959954       4.77959954       0.00007681       0.00006591       0.00006591
W       12.73914960       3.18840073       6.37156465      -0.00001647       0.00001647      -0.00017084
W       14.33264315       4.77972255       7.96377516       0.00007083       0.00005877      -0.00000000
W       12.73914960       3.18840073       9.55598567      -0.00001647       0.00001647       0.00017084
W       14.33278762       4.77959954      11.14795078       0.00007681       0.00006591      -0.00006591
W       12.73977772       3.18777260      12.73977772      -0.00008726       0.00008726      -0.00008726
W       14.33392255       4.77876737      14.33392255       0.00017747       0.00016969       0.00017747
W       12.74098244       6.37144213       0.00000000       0.00009360      -0.00008059      -0.00000000
W       14.33391070       7.96377516       1.59363962       0.00011869      -0.00000000      -0.00011869
W       12.73914960       6.37156465       3.18840073      -0.00001647      -0.00017084       0.00001647
W       14.33264315       7.96377516       4.77972255       0.00007083      -0.00000000       0.00005877
W       12.73719865       6.37276079       6.37276079      -0.00033326      -0.00017229      -0.00017229
W       14.33144727       7.96377516       7.96377516      -0.00024046       0.00000000      -0.00000000
W       12.73719865       6.37276079       9.55478954      -0.00033326      -0.00017229       0.00017229
W       14.33264315       7.96377516      11.14782778       0.00007083      -0.00000000      -0.00005877
W       12.73914960       6.37156465      12.73914960      -0.00001647      -0.00017084      -0.00001647
W       14.33391070       7.96377516      14.33391070       0.00011869      -0.00000000       0.00011869
W       12.74098244       9.55610819      -0.00000000       0.00009360       0.00008059      -0.00000000
W       14.33392255      11.14878295       1.59362777       0.00017747      -0.00016969      -0.00017747
W       12.73914960       9.55598567       3.18840073      -0.00001647       0.00017084       0.00001647
W       14.33278762      11.14795078       4.77959954       0.00007681      -0.00006591       0.00006591
W       12.73719865       9.55478954       6.37276079      -0.00033326       0.00017229      -0.00017229
W       14.33264315      11.14782778       7.96377516       0.00007083      -0.00005877      -0.00000000
W       12.73719865       9.55478954       9.55478954      -0.00033326       0.00017229       0.00017229
W       14.33278762      11.14795078      11.14795078       0.00007681      -0.00006591      -0.00006591
W       12.73914960       9.55598567      12.73914960      -0.00001647       0.00017084      -0.00001647
W       14.33392255      11.14878295      14.33392255       0.00017747      -0.00016969       0.00017747
W       12.74120772      12.74120772       0.00000000      -0.00010448      -0.00010448       0.00000000
W       14.33420779      14.33420779       1.59334254       0.00005052       0.00005052      -0.00005052
W       12.73977772      12.73977772       3.18777260      -0.00008726      -0.00008726       0.00008726
W       14.33392255      14.33392255       4.77876737       0.00017747       0.00017747       0.00016969
W       12.73914960      12.73914960       6.37156465      -0.00001647      -0.00001647      -0.00017084
W       14.33391070      14.33391070       7.96377516       0.00011869       0.00011869       0.00000000
W       12.73914960      12.73914960       9.55598567      -0.00001647      -0.00001647       0.00017084
W       14.33392255      14.33392255      11.14878295       0.00017747       0.00017747      -0.00016969
W       12.73977772      12.73977772      12.73977772      -0.00008726      -0.00008726      -0.00008726
W       14.33420779      14.33420779      14.33420779       0.00005052       0.00005052       0.00005052
249
Lattice="15.927550324233103 0.0 0.0 0.0 15.927550324233103 0.0 0.0 0.0 15.927550324233103" Properties=species:S:1:pos:R:3:forces:R:3 energy=-2376.1779802257215 pbc="T T T"
W        0.00121020       0.00121020       0.00121020       0.00294752       0.00294752       0.00294752
W        1.59698312       1.59698312       1.59698312       0.00495827       0.00495827       0.00495827
W        0.00273215       0.00273215       3.18636457       0.00524970       0.00524970       0.00494678
W        1.60037153       1.60037153       4.78063608       0.00500492       0.00500492       0.00781710
W        0.00300720       0.00300720       6.37092482       0.00432360       0.00432360       0.00413995
W        1.59848394       1.59848394       7.96393762       0.00236572       0.00236572       0.00419039
W        0.00119470       0.00119470       9.55624391       0.00271497       0.00271497       0.00226932
W        1.59454003       1.59454003      11.14972796       0.00260867       0.00260867       0.00544886
W        0.00042306       0.00042306      12.74256667       0.00190467       0.00190467       0.00170685
W        1.59409363       1.59409363      14.33706500       0.00489271       0.00489271       0.00407922
W        0.00273215       3.18636457       0.00273215       0.00524970       0.00494678       0.00524970
W        1.60037153       4.78063608       1.60037153       0.00500492       0.00781710       0.00500492
W        0.00723938       3.18908179       3.18908179       0.00392084       0.00600621       0.00600621
W        1.60983553       4.78715458       4.78715458       0.00298745       0.00358232       0.00358232
W        0.00861129       3.18992339       6.37244310       0.00205839       0.00462779       0.00567226
W        1.60357705       4.78492131       7.96657815       0.00614440       0.00278008       0.00897516
W        0.00363017       3.18709947       9.55673825       0.00208510       0.00306204       0.00369789
W        1.59477693       4.77869179      11.15211099       0.00960309       0.00661403       0.00004157
W        0.00098127       3.18580881      12.74332997       0.00387060       0.00358158       0.00300817
W        1.59482004       4.77878978      14.33911273       0.00546047       0.00435707       0.00248409
W        0.00300720       6.37092482       0.00300720       0.00432360       0.00413995       0.00432360
W        1.59848394       7.96393762       1.59848394       0.00236572       0.00419039       0.00236572
W        0.00861129       6.37244310       3.18992339       0.00205839       0.00567226       0.00462779
W        1.60357705       7.96657815       4.78492131       0.00614440       0.00897516       0.00278008
W        0.00974268       6.37444714       6.37444714       0.00044544       0.00403491       0.00403491
W        1.59160425       7.96877183       7.96877183       0.04892851      -0.00054126      -0.00054126
W        0.00059985       6.37197027       9.55810323       0.00933418       0.00280784       0.00150189
W        1.59002691       7.96395605      11.15327170       0.01595047       0.00520351      -0.00420798
W       -0.00072254       6.37089897      12.74392559       0.00643452       0.00121101       0.00114274
W        1.59325856       7.96383721      14.33848123       0.00429650       0.00113013       0.00051514
W        0.00119470       9.55624391       0.00119470       0.00271497       0.00226932       0.00271497
W        1.59454003      11.14972796       1.59454003       0.00260867       0.00544886       0.00260867
W        0.00363017       9.55673825       3.18709947       0.00208510       0.00369789       0.00306204