249
Lattice="15.92755032433068 0.0 0.0 0.0 15.92755032433068 0.0 0.0 0.0 15.92755032433068" Properties=species:S:1:pos:R:3:forces:R:3 energy=-2376.5441461043833 pbc="T T T"
W       -0.00000000       0.00000000       0.00000000       0.00000000       0.00000000       0.00000000
W        1.59311690       1.59311690       1.59311690       0.00047706       0.00047706       0.00047706
W        0.00000000       0.00000000       3.18576329       0.00000000       0.00000000       0.00031279
W        1.59331647       1.59331647       4.77863906       0.00027076       0.00027076       0.00064653
W        0.00000000       0.00000000       6.37115425      -0.00000000      -0.00000000       0.00020465
W        1.59338207       1.59338207       7.96377516       0.00013089       0.00013089       0.00000000
W        0.00000000       0.00000000       9.55639607      -0.00000000      -0.00000000      -0.00020465
W        1.59331647       1.59331647      11.14891126       0.00027076       0.00027076      -0.00064653
W        0.00000000       0.00000000      12.74178704       0.00000000      -0.00000000      -0.00031279
W        1.59311690       1.59311690      14.33443343       0.00047706       0.00047706      -0.00047706
W        0.00000000       3.18576329       0.00000000       0.00000000       0.00031279       0.00000000
W        1.59331647       4.77863906       1.59331647       0.00027076       0.00064653       0.00027076
W       -0.00000000       3.18589271       3.18589271      -0.00000000       0.00007248       0.00007248
W        1.59391416       4.77885893       4.77885893       0.00006803      -0.00001934      -0.00001934
W       -0.00000000       3.18602481       6.37123770       0.00000000      -0.00052809       0.00016244
W        1.59425482       4.77881998       7.96377516       0.00018364      -0.00041053       0.00000000
W       -0.00000000       3.18602481       9.55631263      -0.00000000      -0.00052809      -0.00016244
W        1.59391416       4.77885893      11.14869139       0.00006803      -0.00001934       0.00001934
W        0.00000000       3.18589271      12.74165762      -0.00000000       0.00007248      -0.00007248
W        1.59331647       4.77863906      14.33423385       0.00027076       0.00064653      -0.00027076
W        0.00000000       6.37115425      -0.00000000      -0.00000000       0.00020465      -0.00000000
W        1.59338207       7.96377516       1.59338207       0.00013089       0.00000000       0.00013089
W        0.00000000       6.37123770       3.18602481      -0.00000000       0.00016244      -0.00052809
W        1.59425482       7.96377516       4.77881998       0.00018364       0.00000000      -0.00041053
W       -0.00000000       6.37135738       6.37135738       0.00000000       0.00005904       0.00005904
W        1.59516653       7.96377516       7.96377516       0.00084403       0.00000000       0.00000000
W       -0.00000000       6.37135738       9.55619294      -0.00000000       0.00005904      -0.00005904
W        1.59425482       7.96377516      11.14873034       0.00018364       0.00000000       0.00041053
W       -0.00000000       6.37123770      12.74152551      -0.00000000       0.00016244       0.00052809
W        1.59338207       7.96377516      14.33416826       0.00013089       0.00000000      -0.00013089
W        0.00000000       9.55639607      -0.00000000      -0.00000000      -0.00020465      -0.00000000
W        1.59331647      11.14891126       1.59331647       0.00027076      -0.00064653       0.00027076
W        0.00000000       9.55631263       3.18602481      -0.00000000      -0.00016244      -0.00052809
W        1.59391416      11.14869139       4.77885893       0.00006803       0.00001934      -0.00001934
W       -0.00000000       9.55619294       6.37135738      -0.00000000      -0.00005904       0.00005904
W        1.59425482      11.14873034       7.96377516       0.00018364       0.00041053       0.00000000
W       -0.00000000       9.55619294       9.55619294      -0.00000000      -0.00005904      -0.00005904
W        1.59391416      11.14869139      11.14869139       0.00006803       0.00001934       0.00001934
W       -0.00000000       9.55631263      12.74152551       0.00000000      -0.00016244       0.00052809
W        1.59331647      11.14891126      14.33423385       0.00027076      -0.00064653      -0.00027076
W        0.00000000      12.74178704       0.00000000       0.00000000      -0.00031279       0.00000000
W        1.59311690      14.33443343       1.59311690       0.00047706      -0.00047706       0.00047706
W        0.00000000      12.74165762       3.18589271      -0.00000000      -0.00007248       0.00007248
W        1.59331647      14.33423385       4.77863906       0.00027076      -0.00027076       0.00064653
W        0.00000000      12.74152551       6.37123770      -0.00000000       0.00052809       0.00016244
W        1.59338207      14.33416826       7.96377516       0.00013089      -0.00013089       0.00000000
W        0.00000000      12.74152551       9.55631263      -0.00000000       0.00052809      -0.00016244
W        1.59331647      14.33423385      11.14891126       0.00027076      -0.00027076      -0.00064653
W        0.00000000      12.74165762      12.74165762      -0.00000000      -0.00007248      -0.00007248
W        1.59311690      14.33443343      14.33443343       0.00047706      -0.00047706      -0.00047706
W        3.18576329       0.00000000       0.00000000       0.00031279       0.00000000       0.00000000
W        4.77863906       1.59331647       1.59331647       0.00064653       0.00027076       0.00027076
W        3.18589271       0.00000000       3.18589271       0.00007248      -0.00000000       0.00007248
W        4.77885893       1.59391416       4.77885893      -0.00001934       0.00006803      -0.00001934
W        3.18602481       0.00000000       6.37123770      -0.00052809      -0.00000000       0.00016244
W        4.77881998       1.59425482       7.96377516      -0.00041053       0.00018364       0.00000000
W        3.18602481       0.00000000       9.55631263      -0.00052809      -0.00000000      -0.00016244
W        4.77885893       1.59391416      11.14869139      -0.00001934       0.00006803       0.00001934
W        3.18589271       0.00000000      12.74165762       0.00007248      -0.00000000      -0.00007248
W        4.77863906       1.59331647      14.33423385       0.00064653       0.00027076      -0.00027076
W        3.18589271       3.18589271       0.00000000       0.00007248       0.00007248       0.00000000
W        4.77885893       4.77885893       1.59391416      -0.00001934      -0.00001934       0.00006803
W        3.18717942       3.18717942       3.18717942       0.00004674       0.00004674       0.00004674
W        4.78336729       4.78336729       4.78336729      -0.00026349      -0.00026349      -0.00026349
W        3.18773057       3.18773057       6.37166237       0.00003678       0.00003678       0.00019776
W        4.78745391       4.78745391       7.96377516      -0.00054121      -0.00054121       0.00000000
W        3.18773057       3.18773057       9.55588795       0.00003678       0.00003678      -0.00019776
W        4.78336729       4.78336729      11.14418303      -0.00026349      -0.00026349       0.00026349
W        3.18717942       3.18717942      12.74037090       0.00004674       0.00004674      -0.00004674
W        4.77885893       4.77885893      14.33363617      -0.00001934      -0.00001934      -0.00006803
W        3.18602481       6.37123770      -0.00000000      -0.00052809       0.00016244       0.00000000
W        4.77881998       7.96377516       1.59425482      -0.00041053       0.00000000       0.00018364
W        3.18773057       6.37166237       3.18773057       0.00003678       0.00019776       0.00003678
W        4.78745391       7.96377516       4.78745391      -0.00054121       0.00000000      -0.00054121
W        3.18519750       6.37205667       6.37205667       0.00022227       0.00006849       0.00006849
W        4.79415562       7.96377516       7.96377516      -0.00007185       0.00000000      -0.00000000
W        3.18519750       6.37205667       9.55549365       0.00022227       0.00006849      -0.00006849
W        4.78745391       7.96377516      11.14009641      -0.00054121       0.00000000       0.00054121
W        3.18773057       6.37166237      12.73981975       0.00003678       0.00019776      -0.00003678
W        4.77881998       7.96377516      14.33329551      -0.00041053       0.00000000      -0.00018364
W        3.18602481       9.55631263      -0.00000000      -0.00052809      -0.00016244      -0.00000000
W        4.77885893      11.14869139       1.59391416      -0.00001934       0.00001934       0.00006803
W        3.18773057       9.55588795       3.18773057       0.00003678      -0.00019776       0.00003678
W        4.78336729      11.14418303       4.78336729      -0.00026349       0.00026349      -0.00026349
W        3.18519750       9.55549365       6.37205667       0.00022227      -0.00006849       0.00006849
W        4.78745391      11.14009641       7.96377516      -0.00054121       0.00054121       0.00000000
W        3.18519750       9.55549365       9.55549365       0.00022227      -0.00006849      -0.00006849
W        4.78336729      11.14418303      11.14418303      -0.00026349       0.00026349       0.00026349
W        3.18773057       9.55588795      12.73981975       0.00003678      -0.00019776      -0.00003678
W        4.77885893      11.14869139      14.33363617      -0.00001934       0.00001934      -0.00006803
W        3.18589271      12.74165762       0.00000000       0.00007248      -0.00007248      -0.00000000
W        4.77863906      14.33423385       1.59331647       0.00064653      -0.00027076       0.00027076
W        3.18717942      12.74037090       3.18717942       0.00004674      -0.00004674       0.00004674
W        4.77885893      14.33363617       4.77885893      -0.00001934      -0.00006803      -0.00001934
W        3.18773057      12.73981975       6.37166237       0.00003678      -0.00003678       0.00019776
W        4.77881998      14.33329551       7.96377516      -0.00041053      -0.00018364       0.00000000
W        3.18773057      12.73981975       9.55588795       0.00003678      -0.00003678      -0.00019776
W        4.77885893      14.33363617      11.14869139      -0.00001934      -0.00006803       0.00001934
W        3.18717942      12.74037090      12.74037090       0.00004674      -0.00004674      -0.00004674
W        4.77863906      14.33423385      14.33423385       0.00064653      -0.00027076      -0.00027076
W        6.37115425       0.00000000       0.00000000       0.00020465      -0.00000000      -0.00000000
W        7.96377516       1.59338207       1.59338207       0.00000000       0.00013089       0.00013089
W        6.37123770      -0.00000000       3.18602481       0.00016244      -0.00000000      -0.00052809
W        7.96377516       1.59425482       4.77881998       0.00000000       0.00018364      -0.00041053
W        6.37135738      -0.00000000       6.37135738       0.00005904      -0.00000000       0.00005904
W        7.96377516       1.59516653       7.96377516       0.00000000       0.00084403       0.00000000
W        6.37135738      -0.00000000       9.55619294       0.00005904      -0.00000000      -0.00005904
W        7.96377516       1.59425482      11.14873034       0.00000000       0.00018364       0.00041053
W        6.37123770       0.00000000      12.74152551       0.00016244      -0.00000000       0.00052809
W        7.96377516       1.59338207      14.33416826       0.00000000       0.00013089      -0.00013089
W        6.37123770       3.18602481       0.00000000       0.00016244      -0.00052809       0.00000000
W        7.96377516       4.77881998       1.59425482       0.00000000      -0.00041053       0.00018364
W        6.37166237       3.18773057       3.18773057       0.00019776       0.00003678       0.00003678
W        7.96377516       4.78745391       4.78745391       0.00000000      -0.00054121      -0.00054121
W        6.37205667       3.18519750       6.37205667       0.00006849       0.00022227       0.00006849
W        7.96377516       4.79415562       7.96377516      -0.00000000      -0.00007185       0.00000000
W        6.37205667       3.18519750       9.55549365       0.00006849       0.00022227      -0.00006849
W        7.96377516       4.78745391      11.14009641       0.00000000      -0.00054121       0.00054121
W        6.37166237       3.18773057      12.73981975       0.00019776       0.00003678      -0.00003678
W        7.96377516       4.77881998      14.33329551       0.00000000      -0.00041053      -0.00018364
W        6.37135738       6.37135738      -0.00000000       0.00005904       0.00005904       0.00000000
W        7.96377516       7.96377516       1.59516653       0.00000000       0.00000000       0.00084403
W        6.37205667       6.37205667       3.18519750       0.00006849       0.00006849       0.00022227
W        7.96377516       7.96377516       4.79415562      -0.00000000       0.00000000      -0.00007185
W        6.39212326       6.39212326       6.39212326      -0.00007477      -0.00007477      -0.00007477
W        6.39212326       6.39212326       9.53542706      -0.00007477      -0.00007477       0.00007477
W        7.96377516       7.96377516      11.13339471       0.00000000       0.00000000       0.00007185
W        6.37205667       6.37205667      12.74235282       0.00006849       0.00006849      -0.00022227
W        7.96377516       7.96377516      14.33238379       0.00000000       0.00000000      -0.00084403
W        6.37135738       9.55619294       0.00000000       0.00005904      -0.00005904      -0.00000000
W        7.96377516      11.14873034       1.59425482       0.00000000       0.00041053       0.00018364
W        6.37205667       9.55549365       3.18519750       0.00006849      -0.00006849       0.00022227
W        7.96377516      11.14009641       4.78745391       0.00000000       0.00054121      -0.00054121
W        6.39212326       9.53542706       6.39212326      -0.00007477       0.00007477      -0.00007477
W        7.96377516      11.13339471       7.96377516       0.00000000       0.00007185       0.00000000
W        6.39212326       9.53542706       9.53542706      -0.00007477       0.00007477       0.00007477
W        7.96377516      11.14009641      11.14009641       0.00000000       0.00054121       0.00054121
W        6.37205667       9.55549365      12.74235282       0.00006849      -0.00006849      -0.00022227
W        7.96377516      11.14873034      14.33329551       0.00000000       0.00041053      -0.00018364
W        6.37123770      12.74152551      -0.00000000       0.00016244       0.00052809       0.00000000
W        7.96377516      14.33416826       1.59338207       0.00000000      -0.00013089       0.00013089
W        6.37166237      12.73981975       3.18773057       0.00019776      -0.00003678       0.00003678
W        7.96377516      14.33329551       4.77881998       0.00000000      -0.00018364      -0.00041053
W        6.37205667      12.74235282       6.37205667       0.00006849      -0.00022227       0.00006849
W        7.96377516      14.33238379       7.96377516       0.00000000      -0.00084403       0.00000000
W        6.37205667      12.74235282       9.55549365       0.00006849      -0.00022227      -0.00006849
W        7.96377516      14.33329551      11.14873034       0.00000000      -0.00018364       0.00041053
W        6.37166237      12.73981975      12.73981975       0.00019776      -0.00003678      -0.00003678
W        7.96377516      14.33416826      14.33416826       0.00000000      -0.00013089      -0.00013089
W        9.55639607      -0.00000000       0.00000000      -0.00020465      -0.00000000      -0.00000000
W       11.14891126       1.59331647       1.59331647      -0.00064653       0.00027076       0.00027076
W        9.55631263      -0.00000000       3.18602481      -0.00016244      -0.00000000      -0.00052809
W       11.14869139       1.59391416       4.77885893       0.00001934       0.00006803      -0.00001934
W        9.55619294      -0.00000000       6.37135738      -0.00005904      -0.00000000       0.00005904
W       11.14873034       1.59425482       7.96377516       0.00041053       0.00018364       0.00000000
W        9.55619294      -0.00000000       9.55619294      -0.00005904      -0.00000000      -0.00005904
W       11.14869139       1.59391416      11.14869139       0.00001934       0.00006803       0.00001934
W        9.55631263      -0.00000000      12.74152551      -0.00016244      -0.00000000       0.00052809
W       11.14891126       1.59331647      14.33423385      -0.00064653       0.00027076      -0.00027076
W        9.55631263       3.18602481       0.00000000      -0.00016244      -0.00052809       0.00000000
W       11.14869139       4.77885893       1.59391416       0.00001934      -0.00001934       0.00006803
W        9.55588795       3.18773057       3.18773057      -0.00019776       0.00003678       0.00003678
W       11.14418303       4.78336729       4.78336729       0.00026349      -0.00026349      -0.00026349
W        9.55549365       3.18519750       6.37205667      -0.00006849       0.00022227       0.00006849
W       11.14009641       4.78745391       7.96377516       0.00054121      -0.00054121       0.00000000
W        9.55549365       3.18519750       9.55549365      -0.00006849       0.00022227      -0.00006849
W       11.14418303       4.78336729      11.14418303       0.00026349      -0.00026349       0.00026349
W        9.55588795       3.18773057      12.73981975      -0.00019776       0.00003678      -0.00003678
W       11.14869139       4.77885893      14.33363617       0.00001934      -0.00001934      -0.00006803
W        9.55619294       6.37135738       0.00000000      -0.00005904       0.00005904       0.00000000
W       11.14873034       7.96377516       1.59425482       0.00041053       0.00000000       0.00018364
W        9.55549365       6.37205667       3.18519750      -0.00006849       0.00006849       0.00022227
W       11.14009641       7.96377516       4.78745391       0.00054121       0.00000000      -0.00054121
W        9.53542706       6.39212326       6.39212326       0.00007477      -0.00007477      -0.00007477
W       11.13339471       7.96377516       7.96377516       0.00007185       0.00000000       0.00000000
W        9.53542706       6.39212326       9.53542706       0.00007477      -0.00007477       0.00007477
W       11.14009641       7.96377516      11.14009641       0.00054121       0.00000000       0.00054121
W        9.55549365       6.37205667      12.74235282      -0.00006849       0.00006849      -0.00022227
W       11.14873034       7.96377516      14.33329551       0.00041053       0.00000000      -0.00018364
W        9.55619294       9.55619294       0.00000000      -0.00005904      -0.00005904      -0.00000000
W       11.14869139      11.14869139       1.59391416       0.00001934       0.00001934       0.00006803
W        9.55549365       9.55549365       3.18519750      -0.00006849      -0.00006849       0.00022227
W       11.14418303      11.14418303       4.78336729       0.00026349       0.00026349      -0.00026349
W        9.53542706       9.53542706       6.39212326       0.00007477       0.00007477      -0.00007477
W       11.14009641      11.14009641       7.96377516       0.00054121       0.00054121       0.00000000
W        9.53542706       9.53542706       9.53542706       0.00007477       0.00007477       0.00007477
W       11.14418303      11.14418303      11.14418303       0.00026349       0.00026349       0.00026349
W        9.55549365       9.55549365      12.74235282      -0.00006849      -0.00006849      -0.00022227
W       11.14869139      11.14869139      14.33363617       0.00001934       0.00001934      -0.00006803
W        9.55631263      12.74152551      -0.00000000      -0.00016244       0.00052809       0.00000000
W       11.14891126      14.33423385       1.59331647      -0.00064653      -0.00027076       0.00027076
W        9.55588795      12.73981975       3.18773057      -0.00019776      -0.00003678       0.00003678
W       11.14869139      14.33363617       4.77885893       0.00001934      -0.00006803      -0.00001934
W        9.55549365      12.74235282       6.37205667      -0.00006849      -0.00022227       0.00006849
W       11.14873034      14.33329551       7.96377516       0.00041053      -0.00018364       0.00000000
W        9.55549365      12.74235282       9.55549365      -0.00006849      -0.00022227      -0.00006849
W       11.14869139      14.33363617      11.14869139       0.00001934      -0.00006803       0.00001934
W        9.55588795      12.73981975      12.73981975      -0.00019776      -0.00003678      -0.00003678
W       11.14891126      14.33423385      14.33423385      -0.00064653      -0.00027076      -0.00027076
W       12.74178704       0.00000000       0.00000000      -0.00031279       0.00000000       0.00000000
W       14.33443343       1.59311690       1.59311690      -0.00047706       0.00047706       0.00047706
W       12.74165762       0.00000000       3.18589271      -0.00007248      -0.00000000       0.00007248
W       14.33423385       1.59331647       4.77863906      -0.00027076       0.00027076       0.00064653
W       12.74152551       0.00000000       6.37123770       0.00052809      -0.00000000       0.00016244
W       14.33416826       1.59338207       7.96377516      -0.00013089       0.00013089       0.00000000
W       12.74152551      -0.00000000       9.55631263       0.00052809      -0.00000000      -0.00016244
W       14.33423385       1.59331647      11.14891126      -0.00027076       0.00027076      -0.00064653
W       12.74165762      -0.00000000      12.74165762      -0.00007248      -0.00000000      -0.00007248
W       14.33443343       1.59311690      14.33443343      -0.00047706       0.00047706      -0.00047706
W       12.74165762       3.18589271       0.00000000      -0.00007248       0.00007248      -0.00000000
W       14.33423385       4.77863906       1.59331647      -0.00027076       0.00064653       0.00027076
W       12.74037090       3.18717942       3.18717942      -0.00004674       0.00004674       0.00004674
W       14.33363617       4.77885893       4.77885893      -0.00006803      -0.00001934      -0.00001934
W       12.73981975       3.18773057       6.37166237      -0.00003678       0.00003678       0.00019776
W       14.33329551       4.77881998       7.96377516      -0.00018364      -0.00041053       0.00000000
W       12.73981975       3.18773057       9.55588795      -0.00003678       0.00003678      -0.00019776
W       14.33363617       4.77885893      11.14869139      -0.00006803      -0.00001934       0.00001934
W       12.74037090       3.18717942      12.74037090      -0.00004674       0.00004674      -0.00004674
W       14.33423385       4.77863906      14.33423385      -0.00027076       0.00064653      -0.00027076
W       12.74152551       6.37123770      -0.00000000       0.00052809       0.00016244      -0.00000000
W       14.33416826       7.96377516       1.59338207      -0.00013089       0.00000000       0.00013089
W       12.73981975       6.37166237       3.18773057      -0.00003678       0.00019776       0.00003678
W       14.33329551       7.96377516       4.77881998      -0.00018364       0.00000000      -0.00041053
W       12.74235282       6.37205667       6.37205667      -0.00022227       0.00006849       0.00006849
W       14.33238379       7.96377516       7.96377516      -0.00084403       0.00000000       0.00000000
W       12.74235282       6.37205667       9.55549365      -0.00022227       0.00006849      -0.00006849
W       14.33329551       7.96377516      11.14873034      -0.00018364       0.00000000       0.00041053
W       12.73981975       6.37166237      12.73981975      -0.00003678       0.00019776      -0.00003678
W       14.33416826       7.96377516      14.33416826      -0.00013089       0.00000000      -0.00013089
W       12.74152551       9.55631263      -0.00000000       0.00052809      -0.00016244       0.00000000
W       14.33423385      11.14891126       1.59331647      -0.00027076      -0.00064653       0.00027076
W       12.73981975       9.55588795       3.18773057      -0.00003678      -0.00019776       0.00003678
W       14.33363617      11.14869139       4.77885893      -0.00006803       0.00001934      -0.00001934
W       12.74235282       9.55549365       6.37205667      -0.00022227      -0.00006849       0.00006849
W       14.33329551      11.14873034       7.96377516      -0.00018364       0.00041053       0.00000000
W       12.74235282       9.55549365       9.55549365      -0.00022227      -0.00006849      -0.00006849
W       14.33363617      11.14869139      11.14869139      -0.00006803       0.00001934       0.00001934
W       12.73981975       9.55588795      12.73981975      -0.00003678      -0.00019776      -0.00003678
W       14.33423385      11.14891126      14.33423385      -0.00027076      -0.00064653      -0.00027076
W       12.74165762      12.74165762      -0.00000000      -0.00007248      -0.00007248      -0.00000000
W       14.33443343      14.33443343       1.59311690      -0.00047706      -0.00047706       0.00047706
W       12.74037090      12.74037090       3.18717942      -0.00004674      -0.00004674       0.00004674
W       14.33423385      14.33423385       4.77863906      -0.00027076      -0.00027076       0.00064653
W       12.73981975      12.73981975       6.37166237      -0.00003678      -0.00003678       0.00019776
W       14.33416826      14.33416826       7.96377516      -0.00013089      -0.00013089      -0.00000000
W       12.73981975      12.73981975       9.55588795      -0.00003678      -0.00003678      -0.00019776
W       14.33423385      14.33423385      11.14891126      -0.00027076      -0.00027076      -0.00064653
W       12.74037090      12.74037090      12.74037090      -0.00004674      -0.00004674      -0.00004674
W       14.33443343      14.33443343      14.33443343      -0.00047706      -0.00047706      -0.00047706
249
Lattice="15.92755032433068 0.0 0.0 0.0 15.92755032433068 0.0 0.0 0.0 15.92755032433068" Properties=species:S:1:pos:R:3:forces:R:3 energy=-2376.345799169052 pbc="T T T"
W        0.00119115       0.00119115       0.00119115       0.00296971       0.00296971       0.00296971
W        1.59657661       1.59657661       1.59657661       0.00440969       0.00440969       0.00440969
W        0.00255297       0.00255297       3.18630744       0.00550693       0.00550693       0.00492781
W        1.59949452       1.59949452       4.78048032       0.00501262       0.00501262       0.00771024
W        0.00270420       0.00270420       6.37100526       0.00479044       0.00479044       0.00356249
W        1.59767172       1.59767172       7.96410159       0.00272161       0.00272161       0.00164062
W        0.00103803       0.00103803       9.55650398       0.00304347       0.00304347       0.00164974
W        1.59423853       1.59423853      11.15007232       0.00105644       0.00105644       0.00295243
W        0.00040533       0.00040533      12.74274782       0.00200975       0.00200975       0.00128033
W        1.59394210       1.59394210      14.33710929       0.00470444       0.00470444       0.00365693
W        0.00255297       3.18630744       0.00255297       0.00550693       0.00492781       0.00550693
W        1.59949452       4.78048032       1.59949452       0.00501262       0.00771024       0.00501262
W        0.00641790       3.18860652       3.18860652       0.00504117       0.00526171       0.00526171
W        1.60736761       4.78625193       4.78625193       0.00407955       0.00052350       0.00052350
W        0.00758240       3.18921299       6.37233342       0.00351447       0.00372424       0.00370621
W        1.60132320       4.78393123       7.96614913       0.01480257      -0.00029926       0.00944988
W        0.00310751       3.18659622       9.55711869       0.00156154       0.00194918       0.00067862
W        1.59398701       4.77844036      11.15241787       0.00780043       0.00141434      -0.00080920
W        0.00100938       3.18558324      12.74369784       0.00272116       0.00278089       0.00216948
W        1.59453558       4.77879189      14.33887022       0.00467725       0.00426771       0.00253589
W        0.00270420       6.37100526       0.00270420       0.00479044       0.00356249       0.00479044
W        1.59767172       7.96410159       1.59767172       0.00272161       0.00164062       0.00272161
W        0.00758240       6.37233342       3.18921299       0.00351447       0.00370621       0.00372424
W        1.60132320       7.96614913       4.78393123       0.01480257       0.00944988      -0.00029926
W        0.00949316       6.37400679       6.37400679      -0.00070987       0.00154958       0.00154958
W        1.59165084       7.96806809       7.96806809       0.04400782       0.00198123       0.00198123
W        0.00054099       6.37174780       9.55838600       0.00912764      -0.00012198       0.00045771
W        1.59005746       7.96385540      11.15343859       0.01263693       0.00574371      -0.00171624
W       -0.00059116       6.37093824      12.74418042       0.00561990      -0.00002612       0.00154093
W        1.59305823       7.96394212      14.33816966       0.00389821       0.00082640       0.00135791
W        0.00103803       9.55650398       0.00103803       0.00304347       0.00164974       0.00304347
W        1.59423853      11.15007232       1.59423853       0.00105644       0.00295243       0.00105644
W        0.00310751       9.55711869       3.18659622       0.00156154       0.00067862       0.00194918