249
Lattice="15.927550324096412 0.0 0.0 0.0 15.927550324096412 0.0 0.0 0.0 15.927550324096412" Properties=species:S:1:pos:R:3:forces:R:3 energy=-2376.852341308034 pbc="T T T"
W        0.00000000      -0.00000000       0.00000000       0.00000000       0.00000000      -0.00000000
W        1.59338236       1.59338236       1.59338236      -0.00002531      -0.00002531      -0.00002531
W        0.00000000       0.00000000       3.18589954      -0.00000000      -0.00000000       0.00099374
W        1.59370698       1.59370698       4.77877628      -0.00023571      -0.00023571       0.00088803
W        0.00000000       0.00000000       6.37128520      -0.00000000       0.00000000       0.00034955
W        1.59375288       1.59375288       7.96377516      -0.00006959      -0.00006959      -0.00000000
W        0.00000000       0.00000000       9.55626513      -0.00000000      -0.00000000      -0.00034955
W        1.59370698       1.59370698      11.14877404      -0.00023571      -0.00023571      -0.00088803
W        0.00000000       0.00000000      12.74165078      -0.00000000      -0.00000000      -0.00099374
W        1.59338236       1.59338236      14.33416797      -0.00002531      -0.00002531       0.00002531
W        0.00000000       3.18589954       0.00000000      -0.00000000       0.00099374      -0.00000000
W        1.59370698       4.77877628       1.59370698      -0.00023571       0.00088803      -0.00023571
W        0.00000000       3.18642153       3.18642153      -0.00000000       0.00025321       0.00025321
W        1.59495685       4.77972880       4.77972880       0.00011580       0.00034126       0.00034126
W        0.00000000       3.18671173       6.37149441      -0.00000000      -0.00050365      -0.00032132
W        1.59508200       4.78001121       7.96377516       0.00038387       0.00038764      -0.00000000
W        0.00000000       3.18671173       9.55605591      -0.00000000      -0.00050365       0.00032132
W        1.59495685       4.77972880      11.14782153       0.00011580       0.00034126      -0.00034126
W        0.00000000       3.18642153      12.74112880      -0.00000000       0.00025321      -0.00025321
W        1.59370698       4.77877628      14.33384334      -0.00023571       0.00088803       0.00023571
W        0.00000000       6.37128520       0.00000000      -0.00000000       0.00034955       0.00000000
W        1.59375288       7.96377516       1.59375288      -0.00006959      -0.00000000      -0.00006959
W        0.00000000       6.37149441       3.18671173      -0.00000000      -0.00032132      -0.00050365
W        1.59508200       7.96377516       4.78001121       0.00038387      -0.00000000       0.00038764
W        0.00000000       6.37192631       6.37192631      -0.00000000      -0.00037442      -0.00037442
W        1.59631033       7.96377516       7.96377516       0.00099930      -0.00000000      -0.00000000
W        0.00000000       6.37192631       9.55562402      -0.00000000      -0.00037442       0.00037442
W        1.59508200       7.96377516      11.14753912       0.00038387       0.00000000      -0.00038764
W        0.00000000       6.37149441      12.74083860      -0.00000000      -0.00032132       0.00050365
W        1.59375288       7.96377516      14.33379745      -0.00006959      -0.00000000       0.00006959
W        0.00000000       9.55626513       0.00000000      -0.00000000      -0.00034955       0.00000000
W        1.59370698      11.14877404       1.59370698      -0.00023571      -0.00088803      -0.00023571
W        0.00000000       9.55605591       3.18671173      -0.00000000       0.00032132      -0.00050365
W        1.59495685      11.14782153       4.77972880       0.00011580      -0.00034126       0.00034126
W        0.00000000       9.55562402       6.37192631      -0.00000000       0.00037442      -0.00037442
W        1.59508200      11.14753912       7.96377516       0.00038387      -0.00038764      -0.00000000
W        0.00000000       9.55562402       9.55562402      -0.00000000       0.00037442       0.00037442
W        1.59495685      11.14782153      11.14782153       0.00011580      -0.00034126      -0.00034126
W        0.00000000       9.55605591      12.74083860      -0.00000000       0.00032132       0.00050365
W        1.59370698      11.14877404      14.33384334      -0.00023571      -0.00088803       0.00023571
W        0.00000000      12.74165078       0.00000000      -0.00000000      -0.00099374      -0.00000000
W        1.59338236      14.33416797       1.59338236      -0.00002531       0.00002531      -0.00002531
W        0.00000000      12.74112880       3.18642153      -0.00000000      -0.00025321       0.00025321
W        1.59370698      14.33384334       4.77877628      -0.00023571       0.00023571       0.00088803
W        0.00000000      12.74083860       6.37149441      -0.00000000       0.00050365      -0.00032132
W        1.59375288      14.33379745       7.96377516      -0.00006959       0.00006959       0.00000000
W        0.00000000      12.74083860       9.55605591      -0.00000000       0.00050365       0.00032132
W        1.59370698      14.33384334      11.14877404      -0.00023571       0.00023571      -0.00088803
W        0.00000000      12.74112880      12.74112880      -0.00000000      -0.00025321      -0.00025321
W        1.59338236      14.33416797      14.33416797      -0.00002531       0.00002531       0.00002531
W        3.18589954       0.00000000       0.00000000       0.00099374      -0.00000000      -0.00000000
W        4.77877628       1.59370698       1.59370698       0.00088803      -0.00023571      -0.00023571
W        3.18642153       0.00000000       3.18642153       0.00025321      -0.00000000       0.00025321
W        4.77972880       1.59495685       4.77972880       0.00034126       0.00011580       0.00034126
W        3.18671173       0.00000000       6.37149441      -0.00050365      -0.00000000      -0.00032132
W        4.78001121       1.59508200       7.96377516       0.00038764       0.00038387       0.00000000
W        3.18671173       0.00000000       9.55605591      -0.00050365      -0.00000000       0.00032132
W        4.77972880       1.59495685      11.14782153       0.00034126       0.00011580      -0.00034126
W        3.18642153       0.00000000      12.74112880       0.00025321      -0.00000000      -0.00025321
W        4.77877628       1.59370698      14.33384334       0.00088803      -0.00023571       0.00023571
W        3.18642153       3.18642153       0.00000000       0.00025321       0.00025321      -0.00000000
W        4.77972880       4.77972880       1.59495685       0.00034126       0.00034126       0.00011580
W        3.18792519       3.18792519       3.18792519       0.00012151       0.00012151       0.00012151
W        4.78741463       4.78741463       4.78741463       0.00035949       0.00035949       0.00035949
W        3.18872208       3.18872208       6.37155271      -0.00018664      -0.00018664      -0.00032841
W        4.78465107       4.78465107       7.96377516      -0.00018224      -0.00018224       0.00000000
W        3.18872208       3.18872208       9.55599761      -0.00018664      -0.00018664       0.00032841
W        4.78741463       4.78741463      11.14013569       0.00035949       0.00035949      -0.00035949
W        3.18792519       3.18792519      12.73962514       0.00012151       0.00012151      -0.00012151
W        4.77972880       4.77972880      14.33259347       0.00034126       0.00034126      -0.00011580
W        3.18671173       6.37149441       0.00000000      -0.00050365      -0.00032132      -0.00000000
W        4.78001121       7.96377516       1.59508200       0.00038764      -0.00000000       0.00038387
W        3.18872208       6.37155271       3.18872208      -0.00018664      -0.00032841      -0.00018664
W        4.78465107       7.96377516       4.78465107      -0.00018224       0.00000000      -0.00018224
W        3.19101116       6.37306844       6.37306844      -0.00027537      -0.00025553      -0.00025553
W        4.80588629       7.96377516       7.96377516       0.00024361       0.00000000       0.00000000
W        3.19101116       6.37306844       9.55448189      -0.00027537      -0.00025553       0.00025553
W        4.78465107       7.96377516      11.14289925      -0.00018224       0.00000000       0.00018224
W        3.18872208       6.37155271      12.73882824      -0.00018664      -0.00032841       0.00018664
W        4.78001121       7.96377516      14.33246832       0.00038764      -0.00000000      -0.00038387
W        3.18671173       9.55605591       0.00000000      -0.00050365       0.00032132      -0.00000000
W        4.77972880      11.14782153       1.59495685       0.00034126      -0.00034126       0.00011580
W        3.18872208       9.55599761       3.18872208      -0.00018664       0.00032841      -0.00018664
W        4.78741463      11.14013569       4.78741463       0.00035949      -0.00035949       0.00035949
W        3.19101116       9.55448189       6.37306844      -0.00027537       0.00025553      -0.00025553
W        4.78465107      11.14289925       7.96377516      -0.00018224       0.00018224       0.00000000
W        3.19101116       9.55448189       9.55448189      -0.00027537       0.00025553       0.00025553
W        4.78741463      11.14013569      11.14013569       0.00035949      -0.00035949      -0.00035949
W        3.18872208       9.55599761      12.73882824      -0.00018664       0.00032841       0.00018664
W        4.77972880      11.14782153      14.33259347       0.00034126      -0.00034126      -0.00011580
W        3.18642153      12.74112880       0.00000000       0.00025321      -0.00025321      -0.00000000
W        4.77877628      14.33384334       1.59370698       0.00088803       0.00023571      -0.00023571
W        3.18792519      12.73962514       3.18792519       0.00012151      -0.00012151       0.00012151
W        4.77972880      14.33259347       4.77972880       0.00034126      -0.00011580       0.00034126
W        3.18872208      12.73882824       6.37155271      -0.00018664       0.00018664      -0.00032841
W        4.78001121      14.33246832       7.96377516       0.00038764      -0.00038387       0.00000000
W        3.18872208      12.73882824       9.55599761      -0.00018664       0.00018664       0.00032841
W        4.77972880      14.33259347      11.14782153       0.00034126      -0.00011580      -0.00034126
W        3.18792519      12.73962514      12.73962514       0.00012151      -0.00012151      -0.00012151
W        4.77877628      14.33384334      14.33384334       0.00088803       0.00023571       0.00023571
W        6.37128520       0.00000000       0.00000000       0.00034955      -0.00000000      -0.00000000
W        7.96377516       1.59375288       1.59375288      -0.00000000      -0.00006959      -0.00006959
W        6.37149441       0.00000000       3.18671173      -0.00032132      -0.00000000      -0.00050365
W        7.96377516       1.59508200       4.78001121      -0.00000000       0.00038387       0.00038764
W        6.37192631       0.00000000       6.37192631      -0.00037442      -0.00000000      -0.00037442
W        7.96377516       1.59631033       7.96377516      -0.00000000       0.00099930      -0.00000000
W        6.37192631       0.00000000       9.55562402      -0.00037442      -0.00000000       0.00037442
W        7.96377516       1.59508200      11.14753912       0.00000000       0.00038387      -0.00038764
W        6.37149441       0.00000000      12.74083860      -0.00032132      -0.00000000       0.00050365
W        7.96377516       1.59375288      14.33379745      -0.00000000      -0.00006959       0.00006959
W        6.37149441       3.18671173       0.00000000      -0.00032132      -0.00050365      -0.00000000
W        7.96377516       4.78001121       1.59508200      -0.00000000       0.00038764       0.00038387
W        6.37155271       3.18872208       3.18872208      -0.00032841      -0.00018664      -0.00018664
W        7.96377516       4.78465107       4.78465107       0.00000000      -0.00018224      -0.00018224
W        6.37306844       3.19101116       6.37306844      -0.00025553      -0.00027537      -0.00025553
W        7.96377516       4.80588629       7.96377516       0.00000000       0.00024361       0.00000000
W        6.37306844       3.19101116       9.55448189      -0.00025553      -0.00027537       0.00025553
W        7.96377516       4.78465107      11.14289925       0.00000000      -0.00018224       0.00018224
W        6.37155271       3.18872208      12.73882824      -0.00032841      -0.00018664       0.00018664
W        7.96377516       4.78001121      14.33246832      -0.00000000       0.00038764      -0.00038387
W        6.37192631       6.37192631       0.00000000      -0.00037442      -0.00037442      -0.00000000
W        7.96377516       7.96377516       1.59631033      -0.00000000       0.00000000       0.00099930
W        6.37306844       6.37306844       3.19101116      -0.00025553      -0.00025553      -0.00027537
W        7.96377516       7.96377516       4.80588629       0.00000000       0.00000000       0.00024361
W        6.39780301       6.39780301       6.39780301       0.00023834       0.00023834       0.00023834
W        6.39780301       6.39780301       9.52974732       0.00023834       0.00023834      -0.00023834
W        7.96377516       7.96377516      11.12166403       0.00000000       0.00000000      -0.00024361
W        6.37306844       6.37306844      12.73653917      -0.00025553      -0.00025553       0.00027537
W        7.96377516       7.96377516      14.33123999      -0.00000000      -0.00000000      -0.00099930
W        6.37192631       9.55562402       0.00000000      -0.00037442       0.00037442      -0.00000000
W        7.96377516      11.14753912       1.59508200       0.00000000      -0.00038764       0.00038387
W        6.37306844       9.55448189       3.19101116      -0.00025553       0.00025553      -0.00027537
W        7.96377516      11.14289925       4.78465107       0.00000000       0.00018224      -0.00018224
W        6.39780301       9.52974732       6.39780301       0.00023834      -0.00023834       0.00023834
W        7.96377516      11.12166403       7.96377516       0.00000000      -0.00024361       0.00000000
W        6.39780301       9.52974732       9.52974732       0.00023834      -0.00023834      -0.00023834
W        7.96377516      11.14289925      11.14289925       0.00000000       0.00018224       0.00018224
W        6.37306844       9.55448189      12.73653917      -0.00025553       0.00025553       0.00027537
W        7.96377516      11.14753912      14.33246832       0.00000000      -0.00038764      -0.00038387
W        6.37149441      12.74083860       0.00000000      -0.00032132       0.00050365      -0.00000000
W        7.96377516      14.33379745       1.59375288      -0.00000000       0.00006959      -0.00006959
W        6.37155271      12.73882824       3.18872208      -0.00032841       0.00018664      -0.00018664
W        7.96377516      14.33246832       4.78001121      -0.00000000      -0.00038387       0.00038764
W        6.37306844      12.73653917       6.37306844      -0.00025553       0.00027537      -0.00025553
W        7.96377516      14.33123999       7.96377516      -0.00000000      -0.00099930      -0.00000000
W        6.37306844      12.73653917       9.55448189      -0.00025553       0.00027537       0.00025553
W        7.96377516      14.33246832      11.14753912       0.00000000      -0.00038387      -0.00038764
W        6.37155271      12.73882824      12.73882824      -0.00032841       0.00018664       0.00018664
W        7.96377516      14.33379745      14.33379745      -0.00000000       0.00006959       0.00006959
W        9.55626513       0.00000000       0.00000000      -0.00034955      -0.00000000       0.00000000
W       11.14877404       1.59370698       1.59370698      -0.00088803      -0.00023571      -0.00023571
W        9.55605591       0.00000000       3.18671173       0.00032132      -0.00000000      -0.00050365
W       11.14782153       1.59495685       4.77972880      -0.00034126       0.00011580       0.00034126
W        9.55562402       0.00000000       6.37192631       0.00037442      -0.00000000      -0.00037442
W       11.14753912       1.59508200       7.96377516      -0.00038764       0.00038387       0.00000000
W        9.55562402       0.00000000       9.55562402       0.00037442      -0.00000000       0.00037442
W       11.14782153       1.59495685      11.14782153      -0.00034126       0.00011580      -0.00034126
W        9.55605591       0.00000000      12.74083860       0.00032132      -0.00000000       0.00050365
W       11.14877404       1.59370698      14.33384334      -0.00088803      -0.00023571       0.00023571
W        9.55605591       3.18671173       0.00000000       0.00032132      -0.00050365      -0.00000000
W       11.14782153       4.77972880       1.59495685      -0.00034126       0.00034126       0.00011580
W        9.55599761       3.18872208       3.18872208       0.00032841      -0.00018664      -0.00018664
W       11.14013569       4.78741463       4.78741463      -0.00035949       0.00035949       0.00035949
W        9.55448189       3.19101116       6.37306844       0.00025553      -0.00027537      -0.00025553
W       11.14289925       4.78465107       7.96377516       0.00018224      -0.00018224       0.00000000
W        9.55448189       3.19101116       9.55448189       0.00025553      -0.00027537       0.00025553
W       11.14013569       4.78741463      11.14013569      -0.00035949       0.00035949      -0.00035949
W        9.55599761       3.18872208      12.73882824       0.00032841      -0.00018664       0.00018664
W       11.14782153       4.77972880      14.33259347      -0.00034126       0.00034126      -0.00011580
W        9.55562402       6.37192631       0.00000000       0.00037442      -0.00037442      -0.00000000
W       11.14753912       7.96377516       1.59508200      -0.00038764       0.00000000       0.00038387
W        9.55448189       6.37306844       3.19101116       0.00025553      -0.00025553      -0.00027537
W       11.14289925       7.96377516       4.78465107       0.00018224       0.00000000      -0.00018224
W        9.52974732       6.39780301       6.39780301      -0.00023834       0.00023834       0.00023834
W       11.12166403       7.96377516       7.96377516      -0.00024361       0.00000000       0.00000000
W        9.52974732       6.39780301       9.52974732      -0.00023834       0.00023834      -0.00023834
W       11.14289925       7.96377516      11.14289925       0.00018224       0.00000000       0.00018224
W        9.55448189       6.37306844      12.73653917       0.00025553      -0.00025553       0.00027537
W       11.14753912       7.96377516      14.33246832      -0.00038764      -0.00000000      -0.00038387
W        9.55562402       9.55562402       0.00000000       0.00037442       0.00037442      -0.00000000
W       11.14782153      11.14782153       1.59495685      -0.00034126      -0.00034126       0.00011580
W        9.55448189       9.55448189       3.19101116       0.00025553       0.00025553      -0.00027537
W       11.14013569      11.14013569       4.78741463      -0.00035949      -0.00035949       0.00035949
W        9.52974732       9.52974732       6.39780301      -0.00023834      -0.00023834       0.00023834
W       11.14289925      11.14289925       7.96377516       0.00018224       0.00018224       0.00000000
W        9.52974732       9.52974732       9.52974732      -0.00023834      -0.00023834      -0.00023834
W       11.14013569      11.14013569      11.14013569      -0.00035949      -0.00035949      -0.00035949
W        9.55448189       9.55448189      12.73653917       0.00025553       0.00025553       0.00027537
W       11.14782153      11.14782153      14.33259347      -0.00034126      -0.00034126      -0.00011580
W        9.55605591      12.74083860       0.00000000       0.00032132       0.00050365      -0.00000000
W       11.14877404      14.33384334       1.59370698      -0.00088803       0.00023571      -0.00023571
W        9.55599761      12.73882824       3.18872208       0.00032841       0.00018664      -0.00018664
W       11.14782153      14.33259347       4.77972880      -0.00034126      -0.00011580       0.00034126
W        9.55448189      12.73653917       6.37306844       0.00025553       0.00027537      -0.00025553
W       11.14753912      14.33246832       7.96377516      -0.00038764      -0.00038387       0.00000000
W        9.55448189      12.73653917       9.55448189       0.00025553       0.00027537       0.00025553
W       11.14782153      14.33259347      11.14782153      -0.00034126      -0.00011580      -0.00034126
W        9.55599761      12.73882824      12.73882824       0.00032841       0.00018664       0.00018664
W       11.14877404      14.33384334      14.33384334      -0.00088803       0.00023571       0.00023571
W       12.74165078       0.00000000       0.00000000      -0.00099374      -0.00000000      -0.00000000
W       14.33416797       1.59338236       1.59338236       0.00002531      -0.00002531      -0.00002531
W       12.74112880       0.00000000       3.18642153      -0.00025321      -0.00000000       0.00025321
W       14.33384334       1.59370698       4.77877628       0.00023571      -0.00023571       0.00088803
W       12.74083860       0.00000000       6.37149441       0.00050365      -0.00000000      -0.00032132
W       14.33379745       1.59375288       7.96377516       0.00006959      -0.00006959      -0.00000000
W       12.74083860       0.00000000       9.55605591       0.00050365      -0.00000000       0.00032132
W       14.33384334       1.59370698      11.14877404       0.00023571      -0.00023571      -0.00088803
W       12.74112880       0.00000000      12.74112880      -0.00025321      -0.00000000      -0.00025321
W       14.33416797       1.59338236      14.33416797       0.00002531      -0.00002531       0.00002531
W       12.74112880       3.18642153       0.00000000      -0.00025321       0.00025321      -0.00000000
W       14.33384334       4.77877628       1.59370698       0.00023571       0.00088803      -0.00023571
W       12.73962514       3.18792519       3.18792519      -0.00012151       0.00012151       0.00012151
W       14.33259347       4.77972880       4.77972880      -0.00011580       0.00034126       0.00034126
W       12.73882824       3.18872208       6.37155271       0.00018664      -0.00018664      -0.00032841
W       14.33246832       4.78001121       7.96377516      -0.00038387       0.00038764      -0.00000000
W       12.73882824       3.18872208       9.55599761       0.00018664      -0.00018664       0.00032841
W       14.33259347       4.77972880      11.14782153      -0.00011580       0.00034126      -0.00034126
W       12.73962514       3.18792519      12.73962514      -0.00012151       0.00012151      -0.00012151
W       14.33384334       4.77877628      14.33384334       0.00023571       0.00088803       0.00023571
W       12.74083860       6.37149441       0.00000000       0.00050365      -0.00032132      -0.00000000
W       14.33379745       7.96377516       1.59375288       0.00006959      -0.00000000      -0.00006959
W       12.73882824       6.37155271       3.18872208       0.00018664      -0.00032841      -0.00018664
W       14.33246832       7.96377516       4.78001121      -0.00038387       0.00000000       0.00038764
W       12.73653917       6.37306844       6.37306844       0.00027537      -0.00025553      -0.00025553
W       14.33123999       7.96377516       7.96377516      -0.00099930      -0.00000000      -0.00000000
W       12.73653917       6.37306844       9.55448189       0.00027537      -0.00025553       0.00025553
W       14.33246832       7.96377516      11.14753912      -0.00038387       0.00000000      -0.00038764
W       12.73882824       6.37155271      12.73882824       0.00018664      -0.00032841       0.00018664
W       14.33379745       7.96377516      14.33379745       0.00006959      -0.00000000       0.00006959
W       12.74083860       9.55605591       0.00000000       0.00050365       0.00032132      -0.00000000
W       14.33384334      11.14877404       1.59370698       0.00023571      -0.00088803      -0.00023571
W       12.73882824       9.55599761       3.18872208       0.00018664       0.00032841      -0.00018664
W       14.33259347      11.14782153       4.77972880      -0.00011580      -0.00034126       0.00034126
W       12.73653917       9.55448189       6.37306844       0.00027537       0.00025553      -0.00025553
W       14.33246832      11.14753912       7.96377516      -0.00038387      -0.00038764      -0.00000000
W       12.73653917       9.55448189       9.55448189       0.00027537       0.00025553       0.00025553
W       14.33259347      11.14782153      11.14782153      -0.00011580      -0.00034126      -0.00034126
W       12.73882824       9.55599761      12.73882824       0.00018664       0.00032841       0.00018664
W       14.33384334      11.14877404      14.33384334       0.00023571      -0.00088803       0.00023571
W       12.74112880      12.74112880       0.00000000      -0.00025321      -0.00025321      -0.00000000
W       14.33416797      14.33416797       1.59338236       0.00002531       0.00002531      -0.00002531
W       12.73962514      12.73962514       3.18792519      -0.00012151      -0.00012151       0.00012151
W       14.33384334      14.33384334       4.77877628       0.00023571       0.00023571       0.00088803
W       12.73882824      12.73882824       6.37155271       0.00018664       0.00018664      -0.00032841
W       14.33379745      14.33379745       7.96377516       0.00006959       0.00006959       0.00000000
W       12.73882824      12.73882824       9.55599761       0.00018664       0.00018664       0.00032841
W       14.33384334      14.33384334      11.14877404       0.00023571       0.00023571      -0.00088803
W       12.73962514      12.73962514      12.73962514      -0.00012151      -0.00012151      -0.00012151
W       14.33416797      14.33416797      14.33416797       0.00002531       0.00002531       0.00002531
249
Lattice="15.927550324096412 0.0 0.0 0.0 15.927550324096412 0.0 0.0 0.0 15.927550324096412" Properties=species:S:1:pos:R:3:forces:R:3 energy=-2376.6490246925187 pbc="T T T"
W        0.00124430       0.00124430       0.00124430       0.00303657       0.00303657       0.00303657
W        1.59711332       1.59711332       1.59711332       0.00513598       0.00513598       0.00513598
W        0.00284772       0.00284772       3.18644036       0.00543941       0.00543941       0.00545527
W        1.60062119       1.60062119       4.78068354       0.00506266       0.00506266       0.00848382
W        0.00312191       0.00312191       6.37107501       0.00437677       0.00437677       0.00404608
W        1.59866002       1.59866002       7.96416818       0.00235833       0.00235833       0.00251144
W        0.00121979       0.00121979       9.55631961       0.00235815       0.00235815       0.00176416
W        1.59484491       1.59484491      11.14987029       0.00080366       0.00080366       0.00513451
W        0.00047218       0.00047218      12.74254782       0.00139819       0.00139819       0.00196490
W        1.59429042       1.59429042      14.33709362       0.00468359       0.00468359       0.00443553
W        0.00284772       3.18644036       0.00284772       0.00543941       0.00545527       0.00543941
W        1.60062119       4.78068354       1.60062119       0.00506266       0.00848382       0.00506266
W        0.00743552       3.18942071       3.18942071       0.00412839       0.00557971       0.00557971
W        1.61080902       4.78766891       4.78766891      -0.00002369       0.00257797       0.00257797
W        0.00876669       3.19031076       6.37265032       0.00293601       0.00361227       0.00517321
W        1.60410792       4.78521660       7.96668620       0.00417838       0.00266544       0.01026797
W        0.00382265       3.18731813       9.55685086       0.00089605       0.00180289       0.00304147
W        1.59523916       4.77896957      11.15217815       0.00791985       0.00526023       0.00060847
W        0.00116092       3.18599265      12.74336003       0.00304913       0.00312110       0.00309622
W        1.59513053       4.77894936      14.33919685       0.00517872       0.00450959       0.00239869
W        0.00312191       6.37107501       0.00312191       0.00437677       0.00404608       0.00437677
W        1.59866002       7.96416818       1.59866002       0.00235833       0.00251144       0.00235833
W        0.00876669       6.37265032       3.19031076       0.00293601       0.00517321       0.00361227
W        1.60410792       7.96668620       4.78521660       0.00417838       0.01026797       0.00266544
W        0.01046150       6.37469427       6.37469427      -0.00237584       0.00377771       0.00377771
W        1.59258790       7.96859616       7.96859616       0.04560697      -0.00002533      -0.00002533
W        0.00077283       6.37199200       9.55799655       0.00792521       0.00255346       0.00218994
W        1.59025038       7.96393730      11.15283507       0.01480812       0.00518470      -0.00276849
W       -0.00061768       6.37103067      12.74386212       0.00602976       0.00085430       0.00139132
W        1.59339867       7.96389431      14.33842965       0.00428858       0.00125483       0.00043921
W        0.00121979       9.55631961       0.00121979       0.00235815       0.00176416       0.00235815
W        1.59484491      11.14987029       1.59484491       0.00080366       0.00513451       0.00080366
W        0.00382265       9.55685086       3.18731813       0.00089605       0.00304147       0.00180289