249
Lattice="15.927550324165294 0.0 0.0 0.0 15.927550324165294 0.0 0.0 0.0 15.927550324165294" Properties=species:S:1:pos:R:3:forces:R:3 energy=-2376.1016568703362 pbc="T T T"
W       -0.00000000      -0.00000000      -0.00000000       0.00000000       0.00000000       0.00000000
W        1.59304935       1.59304935       1.59304935       0.00041577       0.00041577       0.00041577
W       -0.00000000      -0.00000000       3.18556879       0.00000000      -0.00000000       0.00060894
W        1.59317008       1.59317008       4.77836900       0.00019906       0.00019906       0.00069884
W       -0.00000000      -0.00000000       6.37104321       0.00000000       0.00000000       0.00041274
W        1.59310606       1.59310606       7.96377516       0.00020989       0.00020989       0.00000000
W       -0.00000000      -0.00000000       9.55650711       0.00000000       0.00000000      -0.00041274
W        1.59317008       1.59317008      11.14918133       0.00019906       0.00019906      -0.00069884
W       -0.00000000      -0.00000000      12.74198154       0.00000000       0.00000000      -0.00060894
W        1.59304935       1.59304935      14.33450097       0.00041577       0.00041577      -0.00041577
W       -0.00000000       3.18556879      -0.00000000       0.00000000       0.00060894       0.00000000
W        1.59317008       4.77836900       1.59317008       0.00019906       0.00069884       0.00019906
W       -0.00000000       3.18579604       3.18579604       0.00000000       0.00010917       0.00010917
W        1.59362724       4.77878349       4.77878349       0.00004895      -0.00003384      -0.00003384
W       -0.00000000       3.18579968       6.37112308       0.00000000      -0.00050954       0.00020700
W        1.59350465       4.77863558       7.96377516       0.00000904      -0.00022713      -0.00000000
W       -0.00000000       3.18579968       9.55642724       0.00000000      -0.00050954      -0.00020700
W        1.59362724       4.77878349      11.14876683       0.00004895      -0.00003384       0.00003384
W       -0.00000000       3.18579604      12.74175429       0.00000000       0.00010917      -0.00010917
W        1.59317008       4.77836900      14.33438024       0.00019906       0.00069884      -0.00019906
W       -0.00000000       6.37104321      -0.00000000       0.00000000       0.00041274       0.00000000
W        1.59310606       7.96377516       1.59310606       0.00020989       0.00000000       0.00020989
W       -0.00000000       6.37112308       3.18579968       0.00000000       0.00020700      -0.00050954
W        1.59350465       7.96377516       4.77863558       0.00000904       0.00000000      -0.00022713
W       -0.00000000       6.37143229       6.37143229       0.00000000       0.00000816       0.00000816
W        1.59543360       7.96377516       7.96377516       0.00096592       0.00000000       0.00000000
W       -0.00000000       6.37143229       9.55611804       0.00000000       0.00000816      -0.00000816
W        1.59350465       7.96377516      11.14891474       0.00000904       0.00000000       0.00022713
W       -0.00000000       6.37112308      12.74175064       0.00000000       0.00020700       0.00050954
W        1.59310606       7.96377516      14.33444426       0.00020989       0.00000000      -0.00020989
W       -0.00000000       9.55650711      -0.00000000       0.00000000      -0.00041274       0.00000000
W        1.59317008      11.14918133       1.59317008       0.00019906      -0.00069884       0.00019906
W       -0.00000000       9.55642724       3.18579968       0.00000000      -0.00020700      -0.00050954
W        1.59362724      11.14876683       4.77878349       0.00004895       0.00003384      -0.00003384
W       -0.00000000       9.55611804       6.37143229       0.00000000      -0.00000816       0.00000816
W        1.59350465      11.14891474       7.96377516       0.00000904       0.00022713       0.00000000
W       -0.00000000       9.55611804       9.55611804       0.00000000      -0.00000816      -0.00000816
W        1.59362724      11.14876683      11.14876683       0.00004895       0.00003384       0.00003384
W       -0.00000000       9.55642724      12.74175064       0.00000000      -0.00020700       0.00050954
W        1.59317008      11.14918133      14.33438024       0.00019906      -0.00069884      -0.00019906
W       -0.00000000      12.74198154      -0.00000000      -0.00000000      -0.00060894      -0.00000000
W        1.59304935      14.33450097       1.59304935       0.00041577      -0.00041577       0.00041577
W       -0.00000000      12.74175429       3.18579604       0.00000000      -0.00010917       0.00010917
W        1.59317008      14.33438024       4.77836900       0.00019906      -0.00019906       0.00069884
W       -0.00000000      12.74175064       6.37112308       0.00000000       0.00050954       0.00020700
W        1.59310606      14.33444426       7.96377516       0.00020989      -0.00020989       0.00000000
W       -0.00000000      12.74175064       9.55642724       0.00000000       0.00050954      -0.00020700
W        1.59317008      14.33438024      11.14918133       0.00019906      -0.00019906      -0.00069884
W       -0.00000000      12.74175429      12.74175429       0.00000000      -0.00010917      -0.00010917
W        1.59304935      14.33450097      14.33450097       0.00041577      -0.00041577      -0.00041577
W        3.18556879      -0.00000000      -0.00000000       0.00060894       0.00000000       0.00000000
W        4.77836900       1.59317008       1.59317008       0.00069884       0.00019906       0.00019906
W        3.18579604      -0.00000000       3.18579604       0.00010917       0.00000000       0.00010917
W        4.77878349       1.59362724       4.77878349      -0.00003384       0.00004895      -0.00003384
W        3.18579968      -0.00000000       6.37112308      -0.00050954       0.00000000       0.00020700
W        4.77863558       1.59350465       7.96377516      -0.00022713       0.00000904       0.00000000
W        3.18579968      -0.00000000       9.55642724      -0.00050954       0.00000000      -0.00020700
W        4.77878349       1.59362724      11.14876683      -0.00003384       0.00004895       0.00003384
W        3.18579604      -0.00000000      12.74175429       0.00010917       0.00000000      -0.00010917
W        4.77836900       1.59317008      14.33438024       0.00069884       0.00019906      -0.00019906
W        3.18579604       3.18579604      -0.00000000       0.00010917       0.00010917       0.00000000
W        4.77878349       4.77878349       1.59362724      -0.00003384      -0.00003384       0.00004895
W        3.18695566       3.18695566       3.18695566       0.00006269       0.00006269       0.00006269
W        4.78329557       4.78329557       4.78329557      -0.00000688      -0.00000688      -0.00000688
W        3.18706222       3.18706222       6.37116661      -0.00000187      -0.00000187       0.00003362
W        4.78213272       4.78213272       7.96377516      -0.00054039      -0.00054039      -0.00000000
W        3.18706222       3.18706222       9.55638371      -0.00000187      -0.00000187      -0.00003362
W        4.78329557       4.78329557      11.14425476      -0.00000688      -0.00000688       0.00000688
W        3.18695566       3.18695566      12.74059466       0.00006269       0.00006269      -0.00006269
W        4.77878349       4.77878349      14.33392309      -0.00003384      -0.00003384      -0.00004895
W        3.18579968       6.37112308      -0.00000000      -0.00050954       0.00020700      -0.00000000
W        4.77863558       7.96377516       1.59350465      -0.00022713      -0.00000000       0.00000904
W        3.18706222       6.37116661       3.18706222      -0.00000187       0.00003362      -0.00000187
W        4.78213272       7.96377516       4.78213272      -0.00054039      -0.00000000      -0.00054039
W        3.18492561       6.37138111       6.37138111       0.00039440       0.00011577       0.00011577
W        4.79776790       7.96377516       7.96377516      -0.00040772       0.00000000       0.00000000
W        3.18492561       6.37138111       9.55616921       0.00039440       0.00011577      -0.00011577
W        4.78213272       7.96377516      11.14541760      -0.00054039      -0.00000000       0.00054039
W        3.18706222       6.37116661      12.74048811      -0.00000187       0.00003362       0.00000187
W        4.77863558       7.96377516      14.33404567      -0.00022713      -0.00000000      -0.00000904
W        3.18579968       9.55642724      -0.00000000      -0.00050954      -0.00020700       0.00000000
W        4.77878349      11.14876683       1.59362724      -0.00003384       0.00003384       0.00004895
W        3.18706222       9.55638371       3.18706222      -0.00000187      -0.00003362      -0.00000187
W        4.78329557      11.14425476       4.78329557      -0.00000688       0.00000688      -0.00000688
W        3.18492561       9.55616921       6.37138111       0.00039440      -0.00011577       0.00011577
W        4.78213272      11.14541760       7.96377516      -0.00054039       0.00054039      -0.00000000
W        3.18492561       9.55616921       9.55616921       0.00039440      -0.00011577      -0.00011577
W        4.78329557      11.14425476      11.14425476      -0.00000688       0.00000688       0.00000688
W        3.18706222       9.55638371      12.74048811      -0.00000187      -0.00003362       0.00000187
W        4.77878349      11.14876683      14.33392309      -0.00003384       0.00003384      -0.00004895
W        3.18579604      12.74175429      -0.00000000       0.00010917      -0.00010917       0.00000000
W        4.77836900      14.33438024       1.59317008       0.00069884      -0.00019906       0.00019906
W        3.18695566      12.74059466       3.18695566       0.00006269      -0.00006269       0.00006269
W        4.77878349      14.33392309       4.77878349      -0.00003384      -0.00004895      -0.00003384
W        3.18706222      12.74048811       6.37116661      -0.00000187       0.00000187       0.00003362
W        4.77863558      14.33404567       7.96377516      -0.00022713      -0.00000904       0.00000000
W        3.18706222      12.74048811       9.55638371      -0.00000187       0.00000187      -0.00003362
W        4.77878349      14.33392309      11.14876683      -0.00003384      -0.00004895       0.00003384
W        3.18695566      12.74059466      12.74059466       0.00006269      -0.00006269      -0.00006269
W        4.77836900      14.33438024      14.33438024       0.00069884      -0.00019906      -0.00019906
W        6.37104321      -0.00000000      -0.00000000       0.00041274       0.00000000       0.00000000
W        7.96377516       1.59310606       1.59310606      -0.00000000       0.00020989       0.00020989
W        6.37112308      -0.00000000       3.18579968       0.00020700       0.00000000      -0.00050954
W        7.96377516       1.59350465       4.77863558       0.00000000       0.00000904      -0.00022713
W        6.37143229      -0.00000000       6.37143229       0.00000816       0.00000000       0.00000816
W        7.96377516       1.59543360       7.96377516       0.00000000       0.00096592       0.00000000
W        6.37143229      -0.00000000       9.55611804       0.00000816       0.00000000      -0.00000816
W        7.96377516       1.59350465      11.14891474       0.00000000       0.00000904       0.00022713
W        6.37112308      -0.00000000      12.74175064       0.00020700       0.00000000       0.00050954
W        7.96377516       1.59310606      14.33444426       0.00000000       0.00020989      -0.00020989
W        6.37112308       3.18579968      -0.00000000       0.00020700      -0.00050954       0.00000000
W        7.96377516       4.77863558       1.59350465       0.00000000      -0.00022713       0.00000904
W        6.37116661       3.18706222       3.18706222       0.00003362      -0.00000187      -0.00000187
W        7.96377516       4.78213272       4.78213272       0.00000000      -0.00054039      -0.00054039
W        6.37138111       3.18492561       6.37138111       0.00011577       0.00039440       0.00011577
W        7.96377516       4.79776790       7.96377516       0.00000000      -0.00040772       0.00000000
W        6.37138111       3.18492561       9.55616921       0.00011577       0.00039440      -0.00011577
W        7.96377516       4.78213272      11.14541760      -0.00000000      -0.00054039       0.00054039
W        6.37116661       3.18706222      12.74048811       0.00003362      -0.00000187       0.00000187
W        7.96377516       4.77863558      14.33404567       0.00000000      -0.00022713      -0.00000904
W        6.37143229       6.37143229      -0.00000000       0.00000816       0.00000816      -0.00000000
W        7.96377516       7.96377516       1.59543360       0.00000000       0.00000000       0.00096592
W        6.37138111       6.37138111       3.18492561       0.00011577       0.00011577       0.00039440
W        7.96377516       7.96377516       4.79776790       0.00000000       0.00000000      -0.00040772
W        6.39344139       6.39344139       6.39344139      -0.00038216      -0.00038216      -0.00038216
W        6.39344139       6.39344139       9.53410894      -0.00038216      -0.00038216       0.00038216
W        7.96377516       7.96377516      11.12978243       0.00000000       0.00000000       0.00040772
W        6.37138111       6.37138111      12.74262472       0.00011577       0.00011577      -0.00039440
W        7.96377516       7.96377516      14.33211673       0.00000000       0.00000000      -0.00096592
W        6.37143229       9.55611804      -0.00000000       0.00000816      -0.00000816       0.00000000
W        7.96377516      11.14891474       1.59350465      -0.00000000       0.00022713       0.00000904
W        6.37138111       9.55616921       3.18492561       0.00011577      -0.00011577       0.00039440
W        7.96377516      11.14541760       4.78213272       0.00000000       0.00054039      -0.00054039
W        6.39344139       9.53410894       6.39344139      -0.00038216       0.00038216      -0.00038216
W        7.96377516      11.12978243       7.96377516       0.00000000       0.00040772       0.00000000
W        6.39344139       9.53410894       9.53410894      -0.00038216       0.00038216       0.00038216
W        7.96377516      11.14541760      11.14541760      -0.00000000       0.00054039       0.00054039
W        6.37138111       9.55616921      12.74262472       0.00011577      -0.00011577      -0.00039440
W        7.96377516      11.14891474      14.33404567       0.00000000       0.00022713      -0.00000904
W        6.37112308      12.74175064      -0.00000000       0.00020700       0.00050954       0.00000000
W        7.96377516      14.33444426       1.59310606       0.00000000      -0.00020989       0.00020989
W        6.37116661      12.74048811       3.18706222       0.00003362       0.00000187      -0.00000187
W        7.96377516      14.33404567       4.77863558       0.00000000      -0.00000904      -0.00022713
W        6.37138111      12.74262472       6.37138111       0.00011577      -0.00039440       0.00011577
W        7.96377516      14.33211673       7.96377516       0.00000000      -0.00096592       0.00000000
W        6.37138111      12.74262472       9.55616921       0.00011577      -0.00039440      -0.00011577
W        7.96377516      14.33404567      11.14891474      -0.00000000      -0.00000904       0.00022713
W        6.37116661      12.74048811      12.74048811       0.00003362       0.00000187       0.00000187
W        7.96377516      14.33444426      14.33444426       0.00000000      -0.00020989      -0.00020989
W        9.55650711      -0.00000000      -0.00000000      -0.00041274      -0.00000000       0.00000000
W       11.14918133       1.59317008       1.59317008      -0.00069884       0.00019906       0.00019906
W        9.55642724      -0.00000000       3.18579968      -0.00020700       0.00000000      -0.00050954
W       11.14876683       1.59362724       4.77878349       0.00003384       0.00004895      -0.00003384
W        9.55611804      -0.00000000       6.37143229      -0.00000816       0.00000000       0.00000816
W       11.14891474       1.59350465       7.96377516       0.00022713       0.00000904       0.00000000
W        9.55611804      -0.00000000       9.55611804      -0.00000816       0.00000000      -0.00000816
W       11.14876683       1.59362724      11.14876683       0.00003384       0.00004895       0.00003384
W        9.55642724      -0.00000000      12.74175064      -0.00020700       0.00000000       0.00050954
W       11.14918133       1.59317008      14.33438024      -0.00069884       0.00019906      -0.00019906
W        9.55642724       3.18579968      -0.00000000      -0.00020700      -0.00050954       0.00000000
W       11.14876683       4.77878349       1.59362724       0.00003384      -0.00003384       0.00004895
W        9.55638371       3.18706222       3.18706222      -0.00003362      -0.00000187      -0.00000187
W       11.14425476       4.78329557       4.78329557       0.00000688      -0.00000688      -0.00000688
W        9.55616921       3.18492561       6.37138111      -0.00011577       0.00039440       0.00011577
W       11.14541760       4.78213272       7.96377516       0.00054039      -0.00054039      -0.00000000
W        9.55616921       3.18492561       9.55616921      -0.00011577       0.00039440      -0.00011577
W       11.14425476       4.78329557      11.14425476       0.00000688      -0.00000688       0.00000688
W        9.55638371       3.18706222      12.74048811      -0.00003362      -0.00000187       0.00000187
W       11.14876683       4.77878349      14.33392309       0.00003384      -0.00003384      -0.00004895
W        9.55611804       6.37143229      -0.00000000      -0.00000816       0.00000816       0.00000000
W       11.14891474       7.96377516       1.59350465       0.00022713       0.00000000       0.00000904
W        9.55616921       6.37138111       3.18492561      -0.00011577       0.00011577       0.00039440
W       11.14541760       7.96377516       4.78213272       0.00054039      -0.00000000      -0.00054039
W        9.53410894       6.39344139       6.39344139       0.00038216      -0.00038216      -0.00038216
W       11.12978243       7.96377516       7.96377516       0.00040772       0.00000000       0.00000000
W        9.53410894       6.39344139       9.53410894       0.00038216      -0.00038216       0.00038216
W       11.14541760       7.96377516      11.14541760       0.00054039      -0.00000000       0.00054039
W        9.55616921       6.37138111      12.74262472      -0.00011577       0.00011577      -0.00039440
W       11.14891474       7.96377516      14.33404567       0.00022713       0.00000000      -0.00000904
W        9.55611804       9.55611804      -0.00000000      -0.00000816      -0.00000816       0.00000000
W       11.14876683      11.14876683       1.59362724       0.00003384       0.00003384       0.00004895
W        9.55616921       9.55616921       3.18492561      -0.00011577      -0.00011577       0.00039440
W       11.14425476      11.14425476       4.78329557       0.00000688       0.00000688      -0.00000688
W        9.53410894       9.53410894       6.39344139       0.00038216       0.00038216      -0.00038216
W       11.14541760      11.14541760       7.96377516       0.00054039       0.00054039      -0.00000000
W        9.53410894       9.53410894       9.53410894       0.00038216       0.00038216       0.00038216
W       11.14425476      11.14425476      11.14425476       0.00000688       0.00000688       0.00000688
W        9.55616921       9.55616921      12.74262472      -0.00011577      -0.00011577      -0.00039440
W       11.14876683      11.14876683      14.33392309       0.00003384       0.00003384      -0.00004895
W        9.55642724      12.74175064      -0.00000000      -0.00020700       0.00050954       0.00000000
W       11.14918133      14.33438024       1.59317008      -0.00069884      -0.00019906       0.00019906
W        9.55638371      12.74048811       3.18706222      -0.00003362       0.00000187      -0.00000187
W       11.14876683      14.33392309       4.77878349       0.00003384      -0.00004895      -0.00003384
W        9.55616921      12.74262472       6.37138111      -0.00011577      -0.00039440       0.00011577
W       11.14891474      14.33404567       7.96377516       0.00022713      -0.00000904       0.00000000
W        9.55616921      12.74262472       9.55616921      -0.00011577      -0.00039440      -0.00011577
W       11.14876683      14.33392309      11.14876683       0.00003384      -0.00004895       0.00003384
W        9.55638371      12.74048811      12.74048811      -0.00003362       0.00000187       0.00000187
W       11.14918133      14.33438024      14.33438024      -0.00069884      -0.00019906      -0.00019906
W       12.74198154      -0.00000000      -0.00000000      -0.00060894       0.00000000       0.00000000
W       14.33450097       1.59304935       1.59304935      -0.00041577       0.00041577       0.00041577
W       12.74175429      -0.00000000       3.18579604      -0.00010917       0.00000000       0.00010917
W       14.33438024       1.59317008       4.77836900      -0.00019906       0.00019906       0.00069884
W       12.74175064      -0.00000000       6.37112308       0.00050954      -0.00000000       0.00020700
W       14.33444426       1.59310606       7.96377516      -0.00020989       0.00020989       0.00000000
W       12.74175064      -0.00000000       9.55642724       0.00050954       0.00000000      -0.00020700
W       14.33438024       1.59317008      11.14918133      -0.00019906       0.00019906      -0.00069884
W       12.74175429      -0.00000000      12.74175429      -0.00010917       0.00000000      -0.00010917
W       14.33450097       1.59304935      14.33450097      -0.00041577       0.00041577      -0.00041577
W       12.74175429       3.18579604      -0.00000000      -0.00010917       0.00010917       0.00000000
W       14.33438024       4.77836900       1.59317008      -0.00019906       0.00069884       0.00019906
W       12.74059466       3.18695566       3.18695566      -0.00006269       0.00006269       0.00006269
W       14.33392309       4.77878349       4.77878349      -0.00004895      -0.00003384      -0.00003384
W       12.74048811       3.18706222       6.37116661       0.00000187      -0.00000187       0.00003362
W       14.33404567       4.77863558       7.96377516      -0.00000904      -0.00022713       0.00000000
W       12.74048811       3.18706222       9.55638371       0.00000187      -0.00000187      -0.00003362
W       14.33392309       4.77878349      11.14876683      -0.00004895      -0.00003384       0.00003384
W       12.74059466       3.18695566      12.74059466      -0.00006269       0.00006269      -0.00006269
W       14.33438024       4.77836900      14.33438024      -0.00019906       0.00069884      -0.00019906
W       12.74175064       6.37112308      -0.00000000       0.00050954       0.00020700       0.00000000
W       14.33444426       7.96377516       1.59310606      -0.00020989       0.00000000       0.00020989
W       12.74048811       6.37116661       3.18706222       0.00000187       0.00003362      -0.00000187
W       14.33404567       7.96377516       4.77863558      -0.00000904       0.00000000      -0.00022713
W       12.74262472       6.37138111       6.37138111      -0.00039440       0.00011577       0.00011577
W       14.33211673       7.96377516       7.96377516      -0.00096592       0.00000000       0.00000000
W       12.74262472       6.37138111       9.55616921      -0.00039440       0.00011577      -0.00011577
W       14.33404567       7.96377516      11.14891474      -0.00000904       0.00000000       0.00022713
W       12.74048811       6.37116661      12.74048811       0.00000187       0.00003362       0.00000187
W       14.33444426       7.96377516      14.33444426      -0.00020989       0.00000000      -0.00020989
W       12.74175064       9.55642724      -0.00000000       0.00050954      -0.00020700       0.00000000
W       14.33438024      11.14918133       1.59317008      -0.00019906      -0.00069884       0.00019906
W       12.74048811       9.55638371       3.18706222       0.00000187      -0.00003362      -0.00000187
W       14.33392309      11.14876683       4.77878349      -0.00004895       0.00003384      -0.00003384
W       12.74262472       9.55616921       6.37138111      -0.00039440      -0.00011577       0.00011577
W       14.33404567      11.14891474       7.96377516      -0.00000904       0.00022713       0.00000000
W       12.74262472       9.55616921       9.55616921      -0.00039440      -0.00011577      -0.00011577
W       14.33392309      11.14876683      11.14876683      -0.00004895       0.00003384       0.00003384
W       12.74048811       9.55638371      12.74048811       0.00000187      -0.00003362       0.00000187
W       14.33438024      11.14918133      14.33438024      -0.00019906      -0.00069884      -0.00019906
W       12.74175429      12.74175429      -0.00000000      -0.00010917      -0.00010917       0.00000000
W       14.33450097      14.33450097       1.59304935      -0.00041577      -0.00041577       0.00041577
W       12.74059466      12.74059466       3.18695566      -0.00006269      -0.00006269       0.00006269
W       14.33438024      14.33438024       4.77836900      -0.00019906      -0.00019906       0.00069884
W       12.74048811      12.74048811       6.37116661       0.00000187       0.00000187       0.00003362
W       14.33444426      14.33444426       7.96377516      -0.00020989      -0.00020989       0.00000000
W       12.74048811      12.74048811       9.55638371       0.00000187       0.00000187      -0.00003362
W       14.33438024      14.33438024      11.14918133      -0.00019906      -0.00019906      -0.00069884
W       12.74059466      12.74059466      12.74059466      -0.00006269      -0.00006269      -0.00006269
W       14.33450097      14.33450097      14.33450097      -0.00041577      -0.00041577      -0.00041577
249
Lattice="15.927550324165294 0.0 0.0 0.0 15.927550324165294 0.0 0.0 0.0 15.927550324165294" Properties=species:S:1:pos:R:3:forces:R:3 energy=-2375.903922898876 pbc="T T T"
W        0.00126478       0.00126478       0.00126478       0.00325802       0.00325802       0.00325802
W        1.59681927       1.59681927       1.59681927       0.00465094       0.00465094       0.00465094
W        0.00279727       0.00279727       3.18642247       0.00488248       0.00488248       0.00423349
W        1.59965012       1.59965012       4.78070215       0.00443787       0.00443787       0.00604614
W        0.00292015       0.00292015       6.37143796       0.00331618       0.00331618       0.00157348
W        1.59743241       1.59743241       7.96479809       0.00357157       0.00357157      -0.00089881
W        0.00115696       0.00115696       9.55700417       0.00146991       0.00146991       0.00039878
W        1.59429754       1.59429754      11.15091694      -0.00053387      -0.00053387       0.00063312
W        0.00041876       0.00041876      12.74292025       0.00140902       0.00140902       0.00336402
W        1.59411060       1.59411060      14.33748202       0.00317451       0.00317451       0.00414669
W        0.00279727       3.18642247       0.00279727       0.00488248       0.00423349       0.00488248
W        1.59965012       4.78070215       1.59965012       0.00443787       0.00604614       0.00443787
W        0.00688000       3.18887800       3.18887800       0.00358909       0.00321767       0.00321767
W        1.60702015       4.78629910       4.78629910       0.01213296       0.00202423       0.00202423
W        0.00763783       3.18919627       6.37265221       0.00631428       0.00246976       0.00351994
W        1.60068584       4.78354536       7.96683852       0.01807812       0.00432034       0.00346162
W        0.00300815       3.18666120       9.55768691       0.00539491      -0.00161230       0.00017681
W        1.59366728       4.77858786      11.15290443       0.01075336       0.00074667      -0.00160751
W        0.00096660       3.18575690      12.74406508       0.00360178       0.00003717       0.00253366
W        1.59449366       4.77902336      14.33941593       0.00447261       0.00091770       0.00117390
W        0.00292015       6.37143796       0.00292015       0.00331618       0.00157348       0.00331618
W        1.59743241       7.96479809       1.59743241       0.00357157      -0.00089881       0.00357157
W        0.00763783       6.37265221       3.18919627       0.00631428       0.00351994       0.00246976
W        1.60068584       7.96683852       4.78354536       0.01807812       0.00346162       0.00432034
W        0.00913473       6.37422700       6.37422700       0.00851621       0.00226648       0.00226648
W        1.59260250       7.96817855       7.96817855       0.04595760      -0.00157415      -0.00157415
W        0.00105026       6.37186598       9.55839145       0.01090404       0.00020092       0.00207289
W        1.58989447       7.96377787      11.15344672       0.01117605       0.00568000       0.00053000
W       -0.00063463       6.37108833      12.74453714       0.00852639      -0.00225645       0.00140520
W        1.59293971       7.96428850      14.33854329       0.00298524      -0.00090331       0.00035135
W        0.00115696       9.55700417       0.00115696       0.00146991       0.00039878       0.00146991
W        1.59429754      11.15091694       1.59429754      -0.00053387       0.00063312      -0.00053387
W        0.00300815       9.55768691       3.18666120       0.00539491       0.00017681      -0.00161230