249
Lattice="15.927550324213591 0.0 0.0 0.0 15.927550324213591 0.0 0.0 0.0 15.927550324213591" Properties=species:S:1:pos:R:3:forces:R:3 energy=-2376.5370497464137 pbc="T T T"
W        0.00000000       0.00000000       0.00000000      -0.00000000      -0.00000000      -0.00000000
W        1.59351357       1.59351357       1.59351357      -0.00000858      -0.00000858      -0.00000858
W       -0.00000000      -0.00000000       3.18612777      -0.00000000      -0.00000000       0.00029715
W        1.59389350       1.59389350       4.77904278      -0.00000915      -0.00000915      -0.00003735
W       -0.00000000       0.00000000       6.37143626      -0.00000000      -0.00000000       0.00043651
W        1.59404452       1.59404452       7.96377516       0.00012943       0.00012943       0.00000000
W       -0.00000000       0.00000000       9.55611406      -0.00000000      -0.00000000      -0.00043651
W        1.59389350       1.59389350      11.14850754      -0.00000915      -0.00000915       0.00003735
W        0.00000000       0.00000000      12.74142255      -0.00000000      -0.00000000      -0.00029715
W        1.59351357       1.59351357      14.33403675      -0.00000858      -0.00000858       0.00000858
W       -0.00000000       3.18612777      -0.00000000      -0.00000000       0.00029715       0.00000000
W        1.59389350       4.77904278       1.59389350      -0.00000915      -0.00003735      -0.00000915
W       -0.00000000       3.18668349       3.18668349       0.00000000       0.00005355       0.00005355
W        1.59536283       4.78014047       4.78014047       0.00011560       0.00005899       0.00005899
W       -0.00000000       3.18712452       6.37169156      -0.00000000      -0.00004866      -0.00000670
W        1.59592245       4.78073088       7.96377516       0.00010538       0.00012723      -0.00000000
W        0.00000000       3.18712452       9.55585876      -0.00000000      -0.00004866       0.00000670
W        1.59536283       4.78014047      11.14740985       0.00011560       0.00005899      -0.00005899
W        0.00000000       3.18668349      12.74086683      -0.00000000       0.00005355      -0.00005355
W        1.59389350       4.77904278      14.33365682      -0.00000915      -0.00003735       0.00000915
W       -0.00000000       6.37143626       0.00000000      -0.00000000       0.00043651      -0.00000000
W        1.59404452       7.96377516       1.59404452       0.00012943      -0.00000000       0.00012943
W       -0.00000000       6.37169156       3.18712452      -0.00000000      -0.00000670      -0.00004866
W        1.59592245       7.96377516       4.78073088       0.00010538      -0.00000000       0.00012723
W       -0.00000000       6.37235135       6.37235135      -0.00000000       0.00004618       0.00004618
W        1.59847309       7.96377516       7.96377516      -0.00013616       0.00000000       0.00000000
W        0.00000000       6.37235135       9.55519898      -0.00000000       0.00004618      -0.00004618
W        1.59592245       7.96377516      11.14681945       0.00010538       0.00000000      -0.00012723
W       -0.00000000       6.37169156      12.74042580      -0.00000000      -0.00000670       0.00004866
W        1.59404452       7.96377516      14.33350581       0.00012943      -0.00000000      -0.00012943
W       -0.00000000       9.55611406      -0.00000000       0.00000000      -0.00043651      -0.00000000
W        1.59389350      11.14850754       1.59389350      -0.00000915       0.00003735      -0.00000915
W       -0.00000000       9.55585876       3.18712452      -0.00000000       0.00000670      -0.00004866
W        1.59536283      11.14740985       4.78014047       0.00011560      -0.00005899       0.00005899
W        0.00000000       9.55519898       6.37235135       0.00000000      -0.00004618       0.00004618
W        1.59592245      11.14681945       7.96377516       0.00010538      -0.00012723       0.00000000
W       -0.00000000       9.55519898       9.55519898       0.00000000      -0.00004618      -0.00004618
W        1.59536283      11.14740985      11.14740985       0.00011560      -0.00005899      -0.00005899
W        0.00000000       9.55585876      12.74042580      -0.00000000       0.00000670       0.00004866
W        1.59389350      11.14850754      14.33365682      -0.00000915       0.00003735       0.00000915
W       -0.00000000      12.74142255       0.00000000      -0.00000000      -0.00029715      -0.00000000
W        1.59351357      14.33403675       1.59351357      -0.00000858       0.00000858      -0.00000858
W        0.00000000      12.74086683       3.18668349      -0.00000000      -0.00005355       0.00005355
W        1.59389350      14.33365682       4.77904278      -0.00000915       0.00000915      -0.00003735
W       -0.00000000      12.74042580       6.37169156      -0.00000000       0.00004866      -0.00000670
W        1.59404452      14.33350581       7.96377516       0.00012943      -0.00012943       0.00000000
W       -0.00000000      12.74042580       9.55585876       0.00000000       0.00004866       0.00000670
W        1.59389350      14.33365682      11.14850754      -0.00000915       0.00000915       0.00003735
W        0.00000000      12.74086683      12.74086683      -0.00000000      -0.00005355      -0.00005355
W        1.59351357      14.33403675      14.33403675      -0.00000858       0.00000858       0.00000858
W        3.18612777      -0.00000000       0.00000000       0.00029715      -0.00000000      -0.00000000
W        4.77904278       1.59389350       1.59389350      -0.00003735      -0.00000915      -0.00000915
W        3.18668349      -0.00000000       3.18668349       0.00005355      -0.00000000       0.00005355
W        4.78014047       1.59536283       4.78014047       0.00005899       0.00011560       0.00005899
W        3.18712452      -0.00000000       6.37169156      -0.00004866      -0.00000000      -0.00000670
W        4.78073088       1.59592245       7.96377516       0.00012723       0.00010538       0.00000000
W        3.18712452      -0.00000000       9.55585876      -0.00004866      -0.00000000       0.00000670
W        4.78014047       1.59536283      11.14740985       0.00005899       0.00011560      -0.00005899
W        3.18668349      -0.00000000      12.74086683       0.00005355      -0.00000000      -0.00005355
W        4.77904278       1.59389350      14.33365682      -0.00003735      -0.00000915       0.00000915
W        3.18668349       3.18668349      -0.00000000       0.00005355       0.00005355       0.00000000
W        4.78014047       4.78014047       1.59536283       0.00005899       0.00005899       0.00011560
W        3.18825188       3.18825188       3.18825188       0.00001433       0.00001433       0.00001433
W        4.78863157       4.78863157       4.78863157       0.00015172       0.00015172       0.00015172
W        3.18938571       3.18938571       6.37174670      -0.00009556      -0.00009556       0.00003694
W        4.78649214       4.78649214       7.96377516       0.00013928       0.00013928       0.00000000
W        3.18938571       3.18938571       9.55580362      -0.00009556      -0.00009556      -0.00003694
W        4.78863157       4.78863157      11.13891876       0.00015172       0.00015172      -0.00015172
W        3.18825188       3.18825188      12.73929845       0.00001433       0.00001433      -0.00001433
W        4.78014047       4.78014047      14.33218749       0.00005899       0.00005899      -0.00011560
W        3.18712452       6.37169156      -0.00000000      -0.00004866      -0.00000670      -0.00000000
W        4.78073088       7.96377516       1.59592245       0.00012723      -0.00000000       0.00010538
W        3.18938571       6.37174670       3.18938571      -0.00009556       0.00003694      -0.00009556
W        4.78649214       7.96377516       4.78649214       0.00013928       0.00000000       0.00013928
W        3.19326336       6.37328105       6.37328105      -0.00019994      -0.00003591      -0.00003591
W        4.81851819       7.96377516       7.96377516       0.00019868       0.00000000       0.00000000
W        3.19326336       6.37328105       9.55426927      -0.00019994      -0.00003591       0.00003591
W        4.78649214       7.96377516      11.14105819       0.00013928       0.00000000      -0.00013928
W        3.18938571       6.37174670      12.73816461      -0.00009556       0.00003694       0.00009556
W        4.78073088       7.96377516      14.33162788       0.00012723       0.00000000      -0.00010538
W        3.18712452       9.55585876       0.00000000      -0.00004866       0.00000670      -0.00000000
W        4.78014047      11.14740985       1.59536283       0.00005899      -0.00005899       0.00011560
W        3.18938571       9.55580362       3.18938571      -0.00009556      -0.00003694      -0.00009556
W        4.78863157      11.13891876       4.78863157       0.00015172      -0.00015172       0.00015172
W        3.19326336       9.55426927       6.37328105      -0.00019994       0.00003591      -0.00003591
W        4.78649214      11.14105819       7.96377516       0.00013928      -0.00013928       0.00000000
W        3.19326336       9.55426927       9.55426927      -0.00019994       0.00003591       0.00003591
W        4.78863157      11.13891876      11.13891876       0.00015172      -0.00015172      -0.00015172
W        3.18938571       9.55580362      12.73816461      -0.00009556      -0.00003694       0.00009556
W        4.78014047      11.14740985      14.33218749       0.00005899      -0.00005899      -0.00011560
W        3.18668349      12.74086683       0.00000000       0.00005355      -0.00005355      -0.00000000
W        4.77904278      14.33365682       1.59389350      -0.00003735       0.00000915      -0.00000915
W        3.18825188      12.73929845       3.18825188       0.00001433      -0.00001433       0.00001433
W        4.78014047      14.33218749       4.78014047       0.00005899      -0.00011560       0.00005899
W        3.18938571      12.73816461       6.37174670      -0.00009556       0.00009556       0.00003694
W        4.78073088      14.33162788       7.96377516       0.00012723      -0.00010538       0.00000000
W        3.18938571      12.73816461       9.55580362      -0.00009556       0.00009556      -0.00003694
W        4.78014047      14.33218749      11.14740985       0.00005899      -0.00011560      -0.00005899
W        3.18825188      12.73929845      12.73929845       0.00001433      -0.00001433      -0.00001433
W        4.77904278      14.33365682      14.33365682      -0.00003735       0.00000915       0.00000915
W        6.37143626      -0.00000000       0.00000000       0.00043651      -0.00000000      -0.00000000
W        7.96377516       1.59404452       1.59404452      -0.00000000       0.00012943       0.00012943
W        6.37169156      -0.00000000       3.18712452      -0.00000670      -0.00000000      -0.00004866
W        7.96377516       1.59592245       4.78073088      -0.00000000       0.00010538       0.00012723
W        6.37235135       0.00000000       6.37235135       0.00004618      -0.00000000       0.00004618
W        7.96377516       1.59847309       7.96377516       0.00000000      -0.00013616       0.00000000
W        6.37235135      -0.00000000       9.55519898       0.00004618       0.00000000      -0.00004618
W        7.96377516       1.59592245      11.14681945       0.00000000       0.00010538      -0.00012723
W        6.37169156      -0.00000000      12.74042580      -0.00000670      -0.00000000       0.00004866
W        7.96377516       1.59404452      14.33350581       0.00000000       0.00012943      -0.00012943
W        6.37169156       3.18712452       0.00000000      -0.00000670      -0.00004866      -0.00000000
W        7.96377516       4.78073088       1.59592245       0.00000000       0.00012723       0.00010538
W        6.37174670       3.18938571       3.18938571       0.00003694      -0.00009556      -0.00009556
W        7.96377516       4.78649214       4.78649214       0.00000000       0.00013928       0.00013928
W        6.37328105       3.19326336       6.37328105      -0.00003591      -0.00019994      -0.00003591
W        7.96377516       4.81851819       7.96377516       0.00000000       0.00019868       0.00000000
W        6.37328105       3.19326336       9.55426927      -0.00003591      -0.00019994       0.00003591
W        7.96377516       4.78649214      11.14105819       0.00000000       0.00013928      -0.00013928
W        6.37174670       3.18938571      12.73816461       0.00003694      -0.00009556       0.00009556
W        7.96377516       4.78073088      14.33162788       0.00000000       0.00012723      -0.00010538
W        6.37235135       6.37235135       0.00000000       0.00004618       0.00004618       0.00000000
W        7.96377516       7.96377516       1.59847309       0.00000000       0.00000000      -0.00013616
W        6.37328105       6.37328105       3.19326336      -0.00003591      -0.00003591      -0.00019994
W        7.96377516       7.96377516       4.81851819       0.00000000       0.00000000       0.00019868
W        6.40229005       6.40229005       6.40229005      -0.00006326      -0.00006326      -0.00006326
W        6.40229005       6.40229005       9.52526028      -0.00006326      -0.00006326       0.00006326
W        7.96377516       7.96377516      11.10903213       0.00000000       0.00000000      -0.00019868
W        6.37328105       6.37328105      12.73428696      -0.00003591      -0.00003591       0.00019994
W        7.96377516       7.96377516      14.32907723       0.00000000       0.00000000       0.00013616
W        6.37235135       9.55519898      -0.00000000       0.00004618      -0.00004618      -0.00000000
W        7.96377516      11.14681945       1.59592245       0.00000000      -0.00012723       0.00010538
W        6.37328105       9.55426927       3.19326336      -0.00003591       0.00003591      -0.00019994
W        7.96377516      11.14105819       4.78649214       0.00000000      -0.00013928       0.00013928
W        6.40229005       9.52526028       6.40229005      -0.00006326       0.00006326      -0.00006326
W        7.96377516      11.10903213       7.96377516       0.00000000      -0.00019868       0.00000000
W        6.40229005       9.52526028       9.52526028      -0.00006326       0.00006326       0.00006326
W        7.96377516      11.14105819      11.14105819       0.00000000      -0.00013928      -0.00013928
W        6.37328105       9.55426927      12.73428696      -0.00003591       0.00003591       0.00019994
W        7.96377516      11.14681945      14.33162788       0.00000000      -0.00012723      -0.00010538
W        6.37169156      12.74042580      -0.00000000      -0.00000670       0.00004866      -0.00000000
W        7.96377516      14.33350581       1.59404452       0.00000000      -0.00012943       0.00012943
W        6.37174670      12.73816461       3.18938571       0.00003694       0.00009556      -0.00009556
W        7.96377516      14.33162788       4.78073088       0.00000000      -0.00010538       0.00012723
W        6.37328105      12.73428696       6.37328105      -0.00003591       0.00019994      -0.00003591
W        7.96377516      14.32907723       7.96377516       0.00000000       0.00013616       0.00000000
W        6.37328105      12.73428696       9.55426927      -0.00003591       0.00019994       0.00003591
W        7.96377516      14.33162788      11.14681945       0.00000000      -0.00010538      -0.00012723
W        6.37174670      12.73816461      12.73816461       0.00003694       0.00009556       0.00009556
W        7.96377516      14.33350581      14.33350581      -0.00000000      -0.00012943      -0.00012943
W        9.55611406      -0.00000000       0.00000000      -0.00043651      -0.00000000      -0.00000000
W       11.14850754       1.59389350       1.59389350       0.00003735      -0.00000915      -0.00000915
W        9.55585876       0.00000000       3.18712452       0.00000670      -0.00000000      -0.00004866
W       11.14740985       1.59536283       4.78014047      -0.00005899       0.00011560       0.00005899
W        9.55519898      -0.00000000       6.37235135      -0.00004618      -0.00000000       0.00004618
W       11.14681945       1.59592245       7.96377516      -0.00012723       0.00010538      -0.00000000
W        9.55519898      -0.00000000       9.55519898      -0.00004618      -0.00000000      -0.00004618
W       11.14740985       1.59536283      11.14740985      -0.00005899       0.00011560      -0.00005899
W        9.55585876      -0.00000000      12.74042580       0.00000670      -0.00000000       0.00004866
W       11.14850754       1.59389350      14.33365682       0.00003735      -0.00000915       0.00000915
W        9.55585876       3.18712452       0.00000000       0.00000670      -0.00004866      -0.00000000
W       11.14740985       4.78014047       1.59536283      -0.00005899       0.00005899       0.00011560
W        9.55580362       3.18938571       3.18938571      -0.00003694      -0.00009556      -0.00009556
W       11.13891876       4.78863157       4.78863157      -0.00015172       0.00015172       0.00015172
W        9.55426927       3.19326336       6.37328105       0.00003591      -0.00019994      -0.00003591
W       11.14105819       4.78649214       7.96377516      -0.00013928       0.00013928       0.00000000
W        9.55426927       3.19326336       9.55426927       0.00003591      -0.00019994       0.00003591
W       11.13891876       4.78863157      11.13891876      -0.00015172       0.00015172      -0.00015172
W        9.55580362       3.18938571      12.73816461      -0.00003694      -0.00009556       0.00009556
W       11.14740985       4.78014047      14.33218749      -0.00005899       0.00005899      -0.00011560
W        9.55519898       6.37235135      -0.00000000      -0.00004618       0.00004618       0.00000000
W       11.14681945       7.96377516       1.59592245      -0.00012723       0.00000000       0.00010538
W        9.55426927       6.37328105       3.19326336       0.00003591      -0.00003591      -0.00019994
W       11.14105819       7.96377516       4.78649214      -0.00013928       0.00000000       0.00013928
W        9.52526028       6.40229005       6.40229005       0.00006326      -0.00006326      -0.00006326
W       11.10903213       7.96377516       7.96377516      -0.00019868       0.00000000       0.00000000
W        9.52526028       6.40229005       9.52526028       0.00006326      -0.00006326       0.00006326
W       11.14105819       7.96377516      11.14105819      -0.00013928       0.00000000      -0.00013928
W        9.55426927       6.37328105      12.73428696       0.00003591      -0.00003591       0.00019994
W       11.14681945       7.96377516      14.33162788      -0.00012723       0.00000000      -0.00010538
W        9.55519898       9.55519898      -0.00000000      -0.00004618      -0.00004618       0.00000000
W       11.14740985      11.14740985       1.59536283      -0.00005899      -0.00005899       0.00011560
W        9.55426927       9.55426927       3.19326336       0.00003591       0.00003591      -0.00019994
W       11.13891876      11.13891876       4.78863157      -0.00015172      -0.00015172       0.00015172
W        9.52526028       9.52526028       6.40229005       0.00006326       0.00006326      -0.00006326
W       11.14105819      11.14105819       7.96377516      -0.00013928      -0.00013928       0.00000000
W        9.52526028       9.52526028       9.52526028       0.00006326       0.00006326       0.00006326
W       11.13891876      11.13891876      11.13891876      -0.00015172      -0.00015172      -0.00015172
W        9.55426927       9.55426927      12.73428696       0.00003591       0.00003591       0.00019994
W       11.14740985      11.14740985      14.33218749      -0.00005899      -0.00005899      -0.00011560
W        9.55585876      12.74042580      -0.00000000       0.00000670       0.00004866      -0.00000000
W       11.14850754      14.33365682       1.59389350       0.00003735       0.00000915      -0.00000915
W        9.55580362      12.73816461       3.18938571      -0.00003694       0.00009556      -0.00009556
W       11.14740985      14.33218749       4.78014047      -0.00005899      -0.00011560       0.00005899
W        9.55426927      12.73428696       6.37328105       0.00003591       0.00019994      -0.00003591
W       11.14681945      14.33162788       7.96377516      -0.00012723      -0.00010538      -0.00000000
W        9.55426927      12.73428696       9.55426927       0.00003591       0.00019994       0.00003591
W       11.14740985      14.33218749      11.14740985      -0.00005899      -0.00011560      -0.00005899
W        9.55580362      12.73816461      12.73816461      -0.00003694       0.00009556       0.00009556
W       11.14850754      14.33365682      14.33365682       0.00003735       0.00000915       0.00000915
W       12.74142255      -0.00000000      -0.00000000      -0.00029715      -0.00000000      -0.00000000
W       14.33403675       1.59351357       1.59351357       0.00000858      -0.00000858      -0.00000858
W       12.74086683      -0.00000000       3.18668349      -0.00005355      -0.00000000       0.00005355
W       14.33365682       1.59389350       4.77904278       0.00000915      -0.00000915      -0.00003735
W       12.74042580       0.00000000       6.37169156       0.00004866      -0.00000000      -0.00000670
W       14.33350581       1.59404452       7.96377516      -0.00012943       0.00012943       0.00000000
W       12.74042580      -0.00000000       9.55585876       0.00004866      -0.00000000       0.00000670
W       14.33365682       1.59389350      11.14850754       0.00000915      -0.00000915       0.00003735
W       12.74086683      -0.00000000      12.74086683      -0.00005355      -0.00000000      -0.00005355
W       14.33403675       1.59351357      14.33403675       0.00000858      -0.00000858       0.00000858
W       12.74086683       3.18668349      -0.00000000      -0.00005355       0.00005355      -0.00000000
W       14.33365682       4.77904278       1.59389350       0.00000915      -0.00003735      -0.00000915
W       12.73929845       3.18825188       3.18825188      -0.00001433       0.00001433       0.00001433
W       14.33218749       4.78014047       4.78014047      -0.00011560       0.00005899       0.00005899
W       12.73816461       3.18938571       6.37174670       0.00009556      -0.00009556       0.00003694
W       14.33162788       4.78073088       7.96377516      -0.00010538       0.00012723       0.00000000
W       12.73816461       3.18938571       9.55580362       0.00009556      -0.00009556      -0.00003694
W       14.33218749       4.78014047      11.14740985      -0.00011560       0.00005899      -0.00005899
W       12.73929845       3.18825188      12.73929845      -0.00001433       0.00001433      -0.00001433
W       14.33365682       4.77904278      14.33365682       0.00000915      -0.00003735       0.00000915
W       12.74042580       6.37169156      -0.00000000       0.00004866      -0.00000670      -0.00000000
W       14.33350581       7.96377516       1.59404452      -0.00012943      -0.00000000       0.00012943
W       12.73816461       6.37174670       3.18938571       0.00009556       0.00003694      -0.00009556
W       14.33162788       7.96377516       4.78073088      -0.00010538      -0.00000000       0.00012723
W       12.73428696       6.37328105       6.37328105       0.00019994      -0.00003591      -0.00003591
W       14.32907723       7.96377516       7.96377516       0.00013616       0.00000000       0.00000000
W       12.73428696       6.37328105       9.55426927       0.00019994      -0.00003591       0.00003591
W       14.33162788       7.96377516      11.14681945      -0.00010538       0.00000000      -0.00012723
W       12.73816461       6.37174670      12.73816461       0.00009556       0.00003694       0.00009556
W       14.33350581       7.96377516      14.33350581      -0.00012943      -0.00000000      -0.00012943
W       12.74042580       9.55585876       0.00000000       0.00004866       0.00000670      -0.00000000
W       14.33365682      11.14850754       1.59389350       0.00000915       0.00003735      -0.00000915
W       12.73816461       9.55580362       3.18938571       0.00009556      -0.00003694      -0.00009556
W       14.33218749      11.14740985       4.78014047      -0.00011560      -0.00005899       0.00005899
W       12.73428696       9.55426927       6.37328105       0.00019994       0.00003591      -0.00003591
W       14.33162788      11.14681945       7.96377516      -0.00010538      -0.00012723       0.00000000
W       12.73428696       9.55426927       9.55426927       0.00019994       0.00003591       0.00003591
W       14.33218749      11.14740985      11.14740985      -0.00011560      -0.00005899      -0.00005899
W       12.73816461       9.55580362      12.73816461       0.00009556      -0.00003694       0.00009556
W       14.33365682      11.14850754      14.33365682       0.00000915       0.00003735       0.00000915
W       12.74086683      12.74086683      -0.00000000      -0.00005355      -0.00005355      -0.00000000
W       14.33403675      14.33403675       1.59351357       0.00000858       0.00000858      -0.00000858
W       12.73929845      12.73929845       3.18825188      -0.00001433      -0.00001433       0.00001433
W       14.33365682      14.33365682       4.77904278       0.00000915       0.00000915      -0.00003735
W       12.73816461      12.73816461       6.37174670       0.00009556       0.00009556       0.00003694
W       14.33350581      14.33350581       7.96377516      -0.00012943      -0.00012943       0.00000000
W       12.73816461      12.73816461       9.55580362       0.00009556       0.00009556      -0.00003694
W       14.33365682      14.33365682      11.14850754       0.00000915       0.00000915       0.00003735
W       12.73929845      12.73929845      12.73929845      -0.00001433      -0.00001433      -0.00001433
W       14.33403675      14.33403675      14.33403675       0.00000858       0.00000858       0.00000858
249
Lattice="15.927550324213591 0.0 0.0 0.0 15.927550324213591 0.0 0.0 0.0 15.927550324213591" Properties=species:S:1:pos:R:3:forces:R:3 energy=-2376.3285441894263 pbc="T T T"
W        0.00118981       0.00118981       0.00118981       0.00305316       0.00305316       0.00305316
W        1.59721065       1.59721065       1.59721065       0.00552077       0.00552077       0.00552077
W        0.00282659       0.00282659       3.18659009       0.00547404       0.00547404       0.00517762
W        1.60106452       1.60106452       4.78094255       0.00455086       0.00455086       0.00876303
W        0.00315566       0.00315566       6.37112105       0.00407819       0.00407819       0.00402115
W        1.59913399       1.59913399       7.96403697       0.00165373       0.00165373       0.00391295
W        0.00117985       0.00117985       9.55607150       0.00199125       0.00199125       0.00194298
W        1.59485916       1.59485916      11.14958803       0.00099792       0.00099792       0.00568614
W        0.00041372       0.00041372      12.74232714       0.00115165       0.00115165       0.00189664
W        1.59428521       1.59428521      14.33700553       0.00459825       0.00459825       0.00461379
W        0.00282659       3.18659009       0.00282659       0.00547404       0.00517762       0.00547404
W        1.60106452       4.78094255       1.60106452       0.00455086       0.00876303       0.00455086
W        0.00771229       3.18960359       3.18960359       0.00401215       0.00569760       0.00569760
W        1.61161724       4.78821322       4.78821322       0.00051783       0.00269957       0.00269957
W        0.00919721       3.19075996       6.37281633       0.00184755       0.00344189       0.00542175
W        1.60520587       4.78616217       7.96689618       0.00328844       0.00162269       0.01088598
W        0.00375852       3.18766466       9.55653852       0.00100571       0.00165734       0.00395690
W        1.59517566       4.77914488      11.15201330       0.00870579       0.00591991       0.00059515
W        0.00090425       3.18614366      12.74307937       0.00323222       0.00281357       0.00336656
W        1.59512814       4.77905507      14.33924122       0.00494272       0.00446351       0.00239541
W        0.00315566       6.37112105       0.00315566       0.00407819       0.00402115       0.00407819
W        1.59913399       7.96403697       1.59913399       0.00165373       0.00391295       0.00165373
W        0.00919721       6.37281633       3.19075996       0.00184755       0.00542175       0.00344189
W        1.60520587       7.96689618       4.78616217       0.00328844       0.01088598       0.00162269
W        0.01067013       6.37507972       6.37507972      -0.00358083       0.00371342       0.00371342
W        1.59329465       7.96872999       7.96872999       0.05368090      -0.00105099      -0.00105099
W        0.00032425       6.37227413       9.55755718       0.00819987       0.00260307       0.00245068
W        1.59033453       7.96380630      11.15224428       0.01606377       0.00512849      -0.00290444
W       -0.00101417       6.37109805      12.74344839       0.00610062       0.00069542       0.00138346
W        1.59350484       7.96378108      14.33825522       0.00375185       0.00145040       0.00025866
W        0.00117985       9.55607150       0.00117985       0.00199125       0.00194298       0.00199125
W        1.59485916      11.14958803       1.59485916       0.00099792       0.00568614       0.00099792
W        0.00375852       9.55653852       3.18766466       0.00100571       0.00395690       0.00165734