1979
Lattice="140.45393781036688 0.0 0.0 0.0 144.16198898410357 0.0 0.0 0.0 2.7587758852795563" Properties=species:S:1:pos:R:3:fix_mask:L:1:forces:R:3:region:S:1 fmax_relaxed=0.0007709217762804201 qm_cluster_pbc="_JSON [false, false, true]" qm_cluster_cell="48.0 45.0 2.7587758852795563" energy=0.0 fmax_neb=0.0032119821268958163 pbc="T T T"
W       12.99516496      55.56242582      -0.33623084  T       0.00000000       0.00000000       0.00000000 MM
W       12.99738206      60.06745112      -0.36876418  T       0.00000000       0.00000000       0.00000000 MM
W       11.69828279      62.31998682       0.53251426  T       0.00000000       0.00000000       0.00000000 MM
W       13.00001949      64.57252804      -0.40237928  T       0.00000000       0.00000000       0.00000000 MM
W       11.70103657      66.82507272       0.49921966  T       0.00000000       0.00000000       0.00000000 MM
W       10.40204375      69.07761434      -1.35730684  T       0.00000000       0.00000000       0.00000000 MM
W       13.00295471      69.07761386      -0.43671314  T       0.00000000       0.00000000       0.00000000 MM
W       11.70399403      71.33015044       0.46544369  T       0.00000000       0.00000000       0.00000000 MM
W       10.40497443      73.58268050       1.36833960  T       0.00000000       0.00000000       0.00000000 MM
W       13.00601768      73.58268037       2.28742959  T       0.00000000       0.00000000       0.00000000 MM
W       11.70698195      75.83520436       3.19037077  T       0.00000000       0.00000000       0.00000000 MM
W       13.00901657      78.08772321       2.25294167  T       0.00000000       0.00000000       0.00000000 MM
W       11.70982202      80.34024244       3.15686373  T       0.00000000       0.00000000       0.00000000 MM
W       13.01177048      82.59276335       2.21903157  T       0.00000000       0.00000000       0.00000000 MM
W       11.71235979      84.84529362       3.12408616  T       0.00000000       0.00000000       0.00000000 MM
W       13.01413860      87.09784010       2.18608557  T       0.00000000       0.00000000       0.00000000 MM
W       20.79398258      42.04864283      -0.22011295  T       0.00000000       0.00000000       0.00000000 MM
W       19.49374204      44.30072681       0.67978850  T       0.00000000       0.00000000       0.00000000 MM
W       18.19368625      46.55291242      -1.17904791  T       0.00000000       0.00000000       0.00000000 MM
W       20.79445837      46.55305911      -0.25043806  T       0.00000000       0.00000000       0.00000000 MM
W       16.89381275      48.80518881      -0.27899560  T       0.00000000       0.00000000       0.00000000 MM
W       19.49452770      48.80528524       0.64876166  T       0.00000000       0.00000000       0.00000000 MM
W       18.19478943      51.05760155      -1.21064631  T       0.00000000       0.00000000       0.00000000 MM
W       20.79546597      51.05767644      -0.28310565  T       0.00000000       0.00000000       0.00000000 MM
W       15.59411238      51.05754277       0.62124214  T       0.00000000       0.00000000       0.00000000 MM
W       14.29456990      53.30995993      -1.23704156  T       0.00000000       0.00000000       0.00000000 MM
W       16.89522903      53.30999225      -0.31103067  T       0.00000000       0.00000000       0.00000000 MM
W       19.49587821      53.31003421       0.61556080  T       0.00000000       0.00000000       0.00000000 MM
W       18.19646953      55.56246123      -1.24422656  T       0.00000000       0.00000000       0.00000000 MM
W       20.79709754      55.56248845      -0.31801028  T       0.00000000       0.00000000       0.00000000 MM
W       15.59582547      55.56244094       0.58890701  T       0.00000000       0.00000000       0.00000000 MM
W       14.29655284      57.81493191      -1.26954142  T       0.00000000       0.00000000       0.00000000 MM
W       16.89721222      57.81493933      -0.34483667  T       0.00000000       0.00000000       0.00000000 MM
W       19.49785062      57.81494999       0.58035442  T       0.00000000       0.00000000       0.00000000 MM
W       18.19874383      60.06745399      -1.27956287  T       0.00000000       0.00000000       0.00000000 MM
W       20.79938899      60.06745768      -0.35491800  T       0.00000000       0.00000000       0.00000000 MM
W       15.59807421      60.06745198       0.55502514  T       0.00000000       0.00000000       0.00000000 MM
W       14.29902133      62.31998519      -1.30335634  T       0.00000000       0.00000000       0.00000000 MM
W       16.89973869      62.31998375      -0.38013832  T       0.00000000       0.00000000       0.00000000 MM
W       19.50043247      62.31998264       0.54343832  T       0.00000000       0.00000000       0.00000000 MM
W       18.20155298      64.57252392      -1.31630873  T       0.00000000       0.00000000       0.00000000 MM
W       20.80199275      64.57249377      -0.39343659  F       0.00007100       0.00000392       0.00000141 MM
W       15.60079620      64.57252604       0.51991176  T       0.00000000       0.00000000       0.00000000 MM
W       14.30187932      66.82507140      -1.33814177  T       0.00000000       0.00000000       0.00000000 MM
W       16.90270757      66.82506992      -0.41655126  T       0.00000000       0.00000000       0.00000000 MM
W       19.50351925      66.82506827       0.50524201  T       0.00000000       0.00000000       0.00000000 MM
W       18.20475070      69.07761268      -1.35400211  T       0.00000000       0.00000000       0.00000000 MM
W       20.80516163      69.07760306      -0.43305076  F       0.00005832       0.00000225       0.00000707 MM
W       15.60385743      69.07761331       0.48397566  T       0.00000000       0.00000000       0.00000000 MM
W       14.30496960      71.33015040      -1.37347758  T       0.00000000       0.00000000       0.00000000 MM
W       16.90594290      71.33015036      -0.45359735  T       0.00000000       0.00000000       0.00000000 MM
W       19.50691359      71.33015032       0.46631243  T       0.00000000       0.00000000       0.00000000 MM
W       18.20811745      73.58268006       1.36668319  T       0.00000000       0.00000000       0.00000000 MM
W       20.80852853      73.58272330       2.28565166  F       0.00006461      -0.00000446       0.00000707 MM
W       15.60706514      73.58268022       3.20647180  T       0.00000000       0.00000000       0.00000000 MM
W       14.30809475      75.83520359       1.34987908  T       0.00000000       0.00000000       0.00000000 MM
W       16.90921839      75.83520272       2.26803629  T       0.00000000       0.00000000       0.00000000 MM
W       19.51035449      75.83520173       3.18604712  T       0.00000000       0.00000000       0.00000000 MM
W       18.21139923      78.08771971       1.32878557  T       0.00000000       0.00000000       0.00000000 MM
W       20.81184272      78.08782861       2.24580478  F       0.00007381      -0.00001452       0.00000260 MM
W       15.61019931      78.08772155       3.17035890  T       0.00000000       0.00000000       0.00000000 MM
W       14.31105097      80.34024046       1.31485096  T       0.00000000       0.00000000       0.00000000 MM
W       16.91229970      80.34023842       2.23134446  T       0.00000000       0.00000000       0.00000000 MM
W       19.51357073      80.34023637       3.14752821  T       0.00000000       0.00000000       0.00000000 MM
W       18.21435939      82.59276181       1.29165203  T       0.00000000       0.00000000       0.00000000 MM
W       20.81569027      82.59276205       2.20676110  T       0.00000000       0.00000000       0.00000000 MM
W       15.61305359      82.59276234       3.13490834  T       0.00000000       0.00000000       0.00000000 MM
W       14.31366418      84.84529526       1.28065496  T       0.00000000       0.00000000       0.00000000 MM
W       16.91498986      84.84529827       2.19560734  T       0.00000000       0.00000000       0.00000000 MM
W       19.51633849      84.84530319       3.11011163  T       0.00000000       0.00000000       0.00000000 MM
W       18.21682384      87.09786101       1.25578071  T       0.00000000       0.00000000       0.00000000 MM
W       20.81819602      87.09787795       2.16923933  T       0.00000000       0.00000000       0.00000000 MM
W       15.61547153      87.09784881       3.10055779  T       0.00000000       0.00000000       0.00000000 MM
W       14.31581629      89.35041536       1.24766520  T       0.00000000       0.00000000       0.00000000 MM
W       16.91716116      89.35043732       2.16124579  T       0.00000000       0.00000000       0.00000000 MM
W       19.51852041      89.35046641       3.07427229  T       0.00000000       0.00000000       0.00000000 MM
W       18.21870390      91.60307632       1.22156117  T       0.00000000       0.00000000       0.00000000 MM
W       20.82004770      91.60313266       2.13360839  T       0.00000000       0.00000000       0.00000000 MM
W       15.61736626      91.60303268       3.06765759  T       0.00000000       0.00000000       0.00000000 MM
W       16.91876494      93.85570674       2.12857457  T       0.00000000       0.00000000       0.00000000 MM
W       19.52007471      93.85578268       3.04035398  T       0.00000000       0.00000000       0.00000000 MM
W       18.21999337      96.10845272       1.18926153  T       0.00000000       0.00000000       0.00000000 MM
W       20.82125458      96.10857340       2.10015298  T       0.00000000       0.00000000       0.00000000 MM
W       15.61872066      96.10835603       3.03645838  T       0.00000000       0.00000000       0.00000000 MM
W       16.91982101      98.36114007       2.09779897  T       0.00000000       0.00000000       0.00000000 MM
W       19.52103850      98.36128516       3.00856845  T       0.00000000       0.00000000       0.00000000 MM
W       18.22074766     100.61401100       1.15903481  T       0.00000000       0.00000000       0.00000000 MM
W       20.82189412     100.61421680       2.06902083  T       0.00000000       0.00000000       0.00000000 MM
W       19.52149852     102.86697882       2.97901154  T       0.00000000       0.00000000       0.00000000 MM
W       20.82207762     105.12005046       2.04024781  T       0.00000000       0.00000000       0.00000000 MM
W       27.29760716      30.78985729       0.79591301  T       0.00000000       0.00000000       0.00000000 MM
W       25.99661756      33.04140846      -1.06205429  T       0.00000000       0.00000000       0.00000000 MM
W       28.59795055      33.04208771      -0.12923015  T       0.00000000       0.00000000       0.00000000 MM
W       24.69573907      35.29305446      -0.16156387  T       0.00000000       0.00000000       0.00000000 MM
W       27.29697525      35.29362915       0.77070535  T       0.00000000       0.00000000       0.00000000 MM
W       25.99612875      37.54527751      -1.08845665  T       0.00000000       0.00000000       0.00000000 MM
W       28.59733637      37.54583643      -0.15589195  T       0.00000000       0.00000000       0.00000000 MM
W       23.39499438      37.54480564       0.73867253  T       0.00000000       0.00000000       0.00000000 MM
W       22.09440356      39.79666800      -1.12005196  T       0.00000000       0.00000000       0.00000000 MM
W       24.69543575      39.79704276      -0.18909000  T       0.00000000       0.00000000       0.00000000 MM
W       27.29653221      39.79749210       0.74277279  T       0.00000000       0.00000000       0.00000000 MM
W       25.99590430      42.04927741      -1.11757335  T       0.00000000       0.00000000       0.00000000 MM
W       28.59695599      42.04969996      -0.18551338  T       0.00000000       0.00000000       0.00000000 MM
W       23.39491717      42.04892956       0.71010894  T       0.00000000       0.00000000       0.00000000 MM
W       22.09458850      44.30093704      -1.14955264  T       0.00000000       0.00000000       0.00000000 MM
W       24.69547399      44.30119503      -0.21928670  T       0.00000000       0.00000000       0.00000000 MM
W       27.29640969      44.30151239       0.71190663  T       0.00000000       0.00000000       0.00000000 MM
W       25.99608685      46.55346799      -1.14955816  T       0.00000000       0.00000000       0.00000000 MM
W       28.59696076      46.55384030      -0.21831602  F       0.00004181       0.00003484      -0.00000096 MM
W       23.39525540      46.55324120       0.67895209  T       0.00000000       0.00000000       0.00000000 MM
W       22.09525402      48.80540639      -1.18153655  T       0.00000000       0.00000000       0.00000000 MM
W       24.69599897      48.80555920      -0.25224674  T       0.00000000       0.00000000       0.00000000 MM
W       27.29677324      48.80583440       0.67795057  F       0.00004589       0.00002930       0.00000038 MM
W       25.99682816      51.05795858      -1.18449482  F       0.00005489       0.00002822       0.00000110 MM
W       28.59751971      51.05819841      -0.25442487  F       0.00013077       0.00007095       0.00000146 MM
W       23.39614677      51.05777225       0.64517427  T       0.00000000       0.00000000       0.00000000 MM
W       22.09651986      53.31008888      -1.21596453  T       0.00000000       0.00000000       0.00000000 MM
W       24.69712297      53.31019901      -0.28797564  F       0.00006563       0.00002817       0.00000097 MM
W       27.29772423      53.31036828       0.64087961  F       0.00014209       0.00006866       0.00000336 MM
W       25.99818076      55.56264761      -1.22230498  F       0.00013600       0.00006612       0.00000602 MM
W       28.59869933      55.56280985      -0.29380902  F       0.00024050       0.00011003       0.00000752 MM
W       23.39765437      55.56253776       0.60885283  F       0.00005363       0.00001510       0.00000115 MM
W       22.09846727      57.81496509      -1.25267329  T       0.00000000       0.00000000       0.00000000 MM
W       24.69888540      57.81502544      -0.32629535  F       0.00009263       0.00003965       0.00000940 MM
W       27.29931652      57.81514374       0.60083999  F       0.00022191       0.00009219       0.00000943 MM
W       26.00015502      60.06756432      -1.26273486  F       0.00019563       0.00005039       0.00001081 MM
W       28.60052835      60.06769171      -0.33622583  F       0.00031445       0.00009685       0.00001318 MM
W       23.39977416      60.06748002       0.57025142  F       0.00006734       0.00001041       0.00000835 MM
W       22.10080930      62.31997473      -1.29134105  F       0.00007669       0.00000523       0.00000447 MM
W       24.70117504      62.32003607      -0.36685780  F       0.00018812       0.00001745       0.00000969 MM
W       27.30151171      62.32014805       0.55819262  F       0.00031313       0.00006019       0.00001438 MM
W       26.00267933      64.57263923      -1.30532622  F       0.00029881       0.00003544       0.00001509 MM
W       28.60297753      64.57279191      -0.38117702  F       0.00035885       0.00006733       0.00002166 MM
W       23.40236376      64.57253059       0.52979336  F       0.00017222       0.00001349       0.00000920 MM
W       22.10373935      66.82505802      -1.33147937  F       0.00011071       0.00001163       0.00001083 MM
W       24.70401492      66.82515123      -0.40913061  F       0.00025175       0.00002495       0.00001380 MM
W       27.30428325      66.82531086       0.51353890  F       0.00036215       0.00003963       0.00001854 MM
W       26.00572071      69.07783848      -1.34940678  F       0.00033808       0.00001482       0.00001522 MM
W       28.60596930      69.07805449      -0.42789454  F       0.00037257       0.00002882       0.00002246 MM
W       23.40547074      69.07767650       0.48806517  F       0.00018552       0.00001161       0.00001335 MM
W       22.10703592      71.33020884      -1.37246542  F       0.00011454      -0.00000110       0.00001222 MM
W       24.70725510      71.33036501      -0.45240146  F       0.00027998      -0.00000735       0.00001271 MM
W       27.30748547      71.33059388       0.46770125  F       0.00038951      -0.00000597       0.00001582 MM
W       26.00905289      73.58311314       1.36464012  F       0.00036465      -0.00003342       0.00001267 MM
W       28.60929512      73.58341474       2.28338424  F       0.00039059      -0.00002141       0.00001781 MM
W       23.40882055      73.58287692       3.20456987  F       0.00020554      -0.00002190       0.00001239 MM
W       22.11042134      75.83536849       1.34519047  F       0.00013035      -0.00002127       0.00001022 MM
W       24.71064256      75.83560064       2.26293134  F       0.00029646      -0.00004518       0.00001120 MM
W       27.31088099      75.83592146       3.18042692  F       0.00040731      -0.00005602       0.00001224 MM
W       26.01245818      78.08838077       1.32018375  F       0.00036464      -0.00006951       0.00001042 MM
W       28.61271162      78.08879736       2.23620455  F       0.00041075      -0.00007540       0.00001199 MM
W       23.41220245      78.08804106       3.16253614  F       0.00020568      -0.00003840       0.00000929 MM
W       22.11380765      80.34042109       1.30465320  F       0.00009830      -0.00002254       0.00000784 MM
W       24.71403717      80.34078903       2.22015753  F       0.00025739      -0.00006344       0.00001056 MM
W       27.31425666      80.34123758       3.13516797  F       0.00039946      -0.00010224       0.00000889 MM
W       26.01575010      82.59364070       1.27690039  F       0.00031875      -0.00010118       0.00000947 MM
W       28.61598417      82.59416528       2.19041057  F       0.00041907      -0.00013397       0.00000741 MM
W       23.41558833      82.59320651       3.12148698  F       0.00014700      -0.00004306       0.00001088 MM
W       22.11675478      84.84557515       1.26538950  F       0.00008763      -0.00001524       0.00000176 MM
W       24.71710197      84.84599277       2.17884417  F       0.00022405      -0.00006569       0.00000693 MM
W       27.31736539      84.84651651       3.09162176  F       0.00037477      -0.00012662       0.00000746 MM
W       26.01869342      87.09878846       1.23555683  F       0.00026344      -0.00007415       0.00000400 MM
W       28.61893919      87.09945675       2.14689839  F       0.00040065      -0.00014367       0.00000527 MM
W       23.41840486      87.09826784       3.08215181  F       0.00011735      -0.00002572       0.00000166 MM
W       22.11989272      89.35050500       1.22789183  T       0.00000000       0.00000000       0.00000000 MM
W       24.71999550      89.35103384       2.13963177  F       0.00012331      -0.00002981       0.00000205 MM
W       27.32021030      89.35168977       3.05051389  F       0.00027857      -0.00008562       0.00000276 MM
W       26.02142074      91.60389876       1.19671889  F       0.00012715      -0.00003619       0.00000164 MM
W       28.62156751      91.60471154       2.10630687  F       0.00028689      -0.00010687       0.00000101 MM
W       23.42139406      91.60320566       3.04493746  T       0.00000000       0.00000000       0.00000000 MM
W       22.12137953      93.85587909       1.19265173  T       0.00000000       0.00000000       0.00000000 MM
W       24.72267318      93.85600201       2.10292657  T       0.00000000       0.00000000       0.00000000 MM
W       27.32263766      93.85687977       3.01231478  F       0.00012939      -0.00004836       0.00000035 MM
W       26.02371330      96.10891478       1.16074446  T       0.00000000       0.00000000       0.00000000 MM
W       28.62362622      96.10998825       2.06899958  F       0.00012669      -0.00006161      -0.00000107 MM
W       23.42249749      96.10872460       3.01027190  T       0.00000000       0.00000000       0.00000000 MM
W       22.12223193      98.36146420       1.15981938  T       0.00000000       0.00000000       0.00000000 MM
W       24.72339246      98.36168584       2.06901559  T       0.00000000       0.00000000       0.00000000 MM
W       27.32450919      98.36196105       2.97728088  T       0.00000000       0.00000000       0.00000000 MM
W       26.02406530     100.61477536       1.12775960  T       0.00000000       0.00000000       0.00000000 MM
W       28.62506740     100.61515214       2.03509946  T       0.00000000       0.00000000       0.00000000 MM
W       23.42300345     100.61446800       2.97821732  T       0.00000000       0.00000000       0.00000000 MM
W       22.12256120     102.86725732       1.12947346  T       0.00000000       0.00000000       0.00000000 MM
W       24.72357424     102.86759360       2.03788427  T       0.00000000       0.00000000       0.00000000 MM
W       27.32452652     102.86800016       2.94538068  T       0.00000000       0.00000000       0.00000000 MM
W       26.02395720     105.12084454       1.09768435  T       0.00000000       0.00000000       0.00000000 MM
W       28.62479514     105.12136061       2.00442554  T       0.00000000       0.00000000       0.00000000 MM
W       23.42304770     105.12041238       2.94878109  T       0.00000000       0.00000000       0.00000000 MM
W       22.12249471     107.37322909       1.10158926  T       0.00000000       0.00000000       0.00000000 MM
W       24.72336776     107.37368294       2.00946924  T       0.00000000       0.00000000       0.00000000 MM
W       27.32417176     107.37421864       2.91647874  T       0.00000000       0.00000000       0.00000000 MM
W       26.02354055     109.62706495       1.07038785  T       0.00000000       0.00000000       0.00000000 MM
W       28.62424220     109.62770788       1.97679619  T       0.00000000       0.00000000       0.00000000 MM
W       27.32358870     111.88054954       2.89038227  T       0.00000000       0.00000000       0.00000000 MM
W       28.62353672     114.13412362       1.95196430  T       0.00000000       0.00000000       0.00000000 MM
W       36.40427988      24.03778404      -0.03953181  T       0.00000000       0.00000000       0.00000000 MM
W       32.50138446      26.28794262      -0.07282871  T       0.00000000       0.00000000       0.00000000 MM
W       35.10301044      26.28900862       0.86206323  T       0.00000000       0.00000000       0.00000000 MM
W       33.80175216      28.54024880      -0.99573928  T       0.00000000       0.00000000       0.00000000 MM
W       36.40339686      28.54134798      -0.06023333  T       0.00000000       0.00000000       0.00000000 MM
W       31.20018119      28.53926371       0.82844653  T       0.00000000       0.00000000       0.00000000 MM
W       29.89902810      30.79063860      -1.02955503  T       0.00000000       0.00000000       0.00000000 MM
W       32.50052790      30.79152852      -0.09534830  T       0.00000000       0.00000000       0.00000000 MM
W       35.10210943      30.79253653       0.83981277  T       0.00000000       0.00000000       0.00000000 MM
W       33.80086436      33.04377324      -1.01954223  T       0.00000000       0.00000000       0.00000000 MM
W       36.40245520      33.04480366      -0.08377028  T       0.00000000       0.00000000       0.00000000 MM
W       31.19936419      33.04287182       0.80451043  T       0.00000000       0.00000000       0.00000000 MM
W       29.89829023      35.29430130      -1.05487825  T       0.00000000       0.00000000       0.00000000 MM
W       32.49969261      35.29508526      -0.12068688  T       0.00000000       0.00000000       0.00000000 MM
W       35.10119005      35.29599594       0.81458214  T       0.00000000       0.00000000       0.00000000 MM
W       33.80001405      37.54727766      -1.04644189  T       0.00000000       0.00000000       0.00000000 MM
W       36.40131031      37.54811789      -0.11061662  F       0.00002948       0.00005787      -0.00000942 MM
W       31.19862792      37.54649756       0.77767504  T       0.00000000       0.00000000       0.00000000 MM
W       29.89770480      39.79803087      -1.08314883  T       0.00000000       0.00000000       0.00000000 MM
W       32.49890072      39.79869429      -0.14920751  F       0.00003305       0.00004117      -0.00000126 MM
W       35.10015235      39.79943565       0.78592233  F       0.00006389       0.00006875      -0.00001064 MM
W       33.79917009      42.05088266      -1.07685139  F       0.00010725       0.00009636      -0.00000760 MM
W       36.40038656      42.05153549      -0.14123930  F       0.00016245       0.00016288      -0.00001246 MM
W       31.19803657      42.05026973       0.74761366  F       0.00004913       0.00004842      -0.00000134 MM
W       29.89738579      44.30198479      -1.11464546  F       0.00004455       0.00004138      -0.00000162 MM
W       32.49840566      44.30248911      -0.18126562  F       0.00011357       0.00010430      -0.00000530 MM
W       35.09949492      44.30303046       0.75340366  F       0.00018852       0.00017437      -0.00001058 MM
W       33.79882926      46.55468847      -1.11113827  F       0.00019612       0.00017011      -0.00000761 MM
W       36.39986683      46.55516282      -0.17613113  F       0.00023661       0.00021673      -0.00001272 MM
W       31.19786703      46.55424802       0.71403606  F       0.00011193       0.00009682      -0.00000350 MM
W       29.89756825      48.80615388      -1.14958277  F       0.00011999       0.00008354      -0.00000102 MM
W       32.49840578      48.80650616      -0.21715514  F       0.00020839       0.00015493      -0.00000370 MM
W       35.09930391      48.80688862       0.71661909  F       0.00024710       0.00019766      -0.00000779 MM
W       33.79900389      51.05877961      -1.14960381  F       0.00026201       0.00017732      -0.00000148 MM
W       36.39982919      51.05910789      -0.21572801  F       0.00020975       0.00016306      -0.00000583 MM
W       31.19823926      51.05847505       0.67674385  F       0.00022286       0.00013505       0.00000066 MM
W       29.89833732      53.31058185      -1.18804698  F       0.00023512       0.00011822       0.00000456 MM
W       32.49897979      53.31082401      -0.25704986  F       0.00027863       0.00015703       0.00000481 MM
W       35.09966569      53.31108581       0.67527778  F       0.00022206       0.00015047       0.00000372 MM
W       33.79979753      55.56321769      -1.19237393  F       0.00024258       0.00013987       0.00001223 MM
W       36.40039008      55.56343794      -0.26028233  F       0.00014426       0.00012033       0.00001136 MM
W       31.19923401      55.56300440       0.63570328  F       0.00029681       0.00013994       0.00000957 MM
W       29.89975795      57.81530091      -1.22993034  F       0.00031009       0.00012396       0.00001177 MM
W       32.50021910      57.81548112      -0.30090204  F       0.00027143       0.00012986       0.00001797 MM
W       35.10069550      57.81566968       0.62933509  F       0.00016504       0.00012422       0.00002153 MM
W       33.80129934      60.06802365      -1.23928281  F       0.00019702       0.00012386       0.00002878 MM
W       36.40167717      60.06819819      -0.30971572  F       0.00010880       0.00013979       0.00002539 MM
W       31.20091094      60.06785042       0.59113050  F       0.00030455       0.00011657       0.00002116 MM
W       29.90184224      62.32029718      -1.27486407  F       0.00033591       0.00009513       0.00002230 MM
W       32.50217055      62.32046831      -0.34834889  F       0.00023706       0.00011519       0.00003258 MM
W       35.10248074      62.32064903       0.57912312  F       0.00014043       0.00014888       0.00003335 MM
W       33.80354089      64.57317029      -1.28977121  F       0.00017817       0.00014044       0.00003793 MM
W       36.40377265      64.57338201      -0.36346573  F       0.00008845       0.00018019       0.00002493 MM
W       31.20326862      64.57297255       0.54355966  F       0.00028227       0.00009516       0.00003259 MM
W       29.90454969      66.82550865      -1.32217670  F       0.00032999       0.00006462       0.00002867 MM
W       32.50480441      66.82573074      -0.39864542  F       0.00022132       0.00011265       0.00003809 MM
W       35.10502500      66.82597590       0.52545908  F       0.00014305       0.00018248       0.00003149 MM
W       33.80644390      69.07858434      -1.34283222  F       0.00019201       0.00015218       0.00003435 MM
W       36.40662717      69.07890461      -0.42038042  F       0.00008055       0.00020330       0.00001539 MM
W       31.20621717      69.07830457       0.49387001  F       0.00027391       0.00007086       0.00003360 MM
W       29.90772902      71.33087135      -1.37090977  F       0.00033556       0.00002369       0.00002560 MM
W       32.50796848      71.33118613      -0.45066767  F       0.00023643       0.00009767       0.00003240 MM
W       35.10818135      71.33154669       0.46966981  F       0.00016696       0.00019059       0.00002200 MM
W       33.80978824      73.58416212       1.36171447  F       0.00022354       0.00013399       0.00002468 MM
W       36.41000461      73.58462815       2.28002110  F       0.00011024       0.00019808       0.00000699 MM
W       31.20954648      73.58376436       3.20200830  F       0.00029011       0.00003414       0.00002620 MM
W       29.91113715      75.83630501       1.33887002  F       0.00035735      -0.00002677       0.00001804 MM
W       32.51140049      75.83674058       2.25575717  F       0.00026334       0.00005536       0.00002227 MM
W       35.11165475      75.83724173       3.17224082  F       0.00020926       0.00015712       0.00001365 MM
W       33.81326158      78.08980865       1.30793696  F       0.00025503       0.00007414       0.00001578 MM
W       36.41353601      78.09043111       2.22220018  F       0.00017724       0.00014965       0.00000387 MM
W       31.21298345      78.08927171       3.15174651  F       0.00032066      -0.00002412       0.00001629 MM